# vtk DataFile Version 3.0
Gray-Scott Simulation Output
ASCII
DATASET STRUCTURED_POINTS
DIMENSIONS 256 256 1
SPACING 1.0 1.0 1.0
ORIGIN 0 0 0
POINT_DATA 65536
SCALARS u double
LOOKUP_TABLE default
0 0 0 0 0 0 0 0 0 0 0 0 0 0 0 0 0 0 0 0 0 0 0 0 0 0 0 0 0 0 0 0 0 0 0 0 0 0 0 0 0 0 0 0 0 0 0 0 0 0 0 0 0 0 0 0 0 0 0 0 0 0 0 0 0 0 0 0 0 0 0 0 0 0 0 0 0 0 0 0 0 0 0 0 0 0 0 0 0 0 0 0 0 0 0 0 0 0 0 0 0 0 0 0 0 0 0 0 0 0 0 0 0 0 0 0 0 0 0 0 0 0 0 0 0 0 0 0 0 0 0 0 0 0 0 0 0 0 0 0 0 0 0 0 0 0 0 0 0 0 0 0 0 0 0 0 0 0 0 0 0 0 0 0 0 0 0 0 0 0 0 0 0 0 0 0 0 0 0 0 0 0 0 0 0 0 0 0 0 0 0 0 0 0 0 0 0 0 0 0 0 0 0 0 0 0 0 0 0 0 0 0 0 0 0 0 0 0 0 0 0 0 0 0 0 0 0 0 0 0 0 0 0 0 0 0 0 0 0 0 0 0 0 0 0 0 0 0 0 0 0 0 0 0 0 0 
0 4.20463e-79 1.57063e-78 5.41148e-78 1.8384e-77 6.18986e-77 2.06631e-76 6.83869e-76 2.24382e-75 7.29819e-75 2.35302e-74 7.51957e-74 2.3817e-73 7.47623e-73 2.32568e-72 7.16899e-72 2.18967e-71 6.62649e-71 1.98674e-70 5.90093e-70 1.73617e-69 5.05967e-69 1.46043e-68 4.1748e-68 1.18183e-67 3.31285e-67 9.19491e-67 2.52671e-66 6.87373e-66 1.85107e-65 4.93416e-65 1.30174e-64 3.3988e-64 8.78164e-64 2.24512e-63 5.67909e-63 1.4212e-62 3.51831e-62 8.61533e-62 2.08657e-61 4.99774e-61 1.18374e-60 2.77231e-60 6.41928e-60 1.46943e-59 3.32498e-59 7.43641e-59 1.64372e-58 3.5904e-58 7.74928e-58 1.6525e-57 3.48127e-57 7.24446e-57 1.48903e-56 3.0226e-56 6.05894e-56 1.19923e-55 2.34346e-55 4.52075e-55 8.60833e-55 1.61784e-54 3.00066e-54 5.49179e-54 9.91708e-54 1.76677e-53 3.10499e-53 5.38243e-53 9.20218e-53 1.55151e-52 2.57947e-52 4.22838e-52 6.83355e-52 1.0887e-51 1.70972e-51 2.64643e-51 4.03719e-51 6.06949e-51 8.99185e-51 1.31264e-50 1.88806e-50 2.67573e-50 3.73601e-50 5.13929e-50 6.96498e-50 9.29945e-50 1.22326e-49 1.58533e-49 2.0243e-49 2.54691e-49 3.15774e-49 3.8584e-49 4.64699e-49 5.51752e-49 6.45977e-49 7.45938e-49 8.49833e-49 9.55579e-49 1.06093e-48 1.16362e-48 1.26149e-48 1.35269e-48 1.43573e-48 1.50964e-48 1.574e-48 1.62891e-48 1.67502e-48 1.71335e-48 1.74526e-48 1.77224e-48 1.79581e-48 1.81738e-48 1.83813e-48 1.85898e-48 1.88051e-48 1.90299e-48 1.92643e-48 1.9506e-48 1.97514e-48 1.99964e-48 2.02368e-48 2.04691e-48 2.06907e-48 2.09001e-48 2.10969e-48 2.12813e-48 2.14539e-48 2.16152e-48 2.17654e-48 2.19038e-48 2.20288e-48 2.21376e-48 2.22266e-48 2.22911e-48 2.23264e-48 2.23274e-48 2.22894e-48 2.22088e-48 2.20829e-48 2.19108e-48 2.16932e-48 2.1433e-48 2.11348e-48 2.0805e-48 2.04516e-48 2.00837e-48 1.97112e-48 1.93441e-48 1.89922e-48 1.86647e-48 1.83694e-48 1.81126e-48 1.78986e-48 1.77299e-48 1.76069e-48 1.75281e-48 1.74905e-48 1.74898e-48 1.75208e-48 1.75779e-48 1.76555e-48 1.77483e-48 1.78516e-48 1.79615e-48 1.80749e-48 1.81895e-48 1.83037e-48 1.84163e-48 1.85267e-48 1.86347e-48 1.87404e-48 1.88442e-48 1.89471e-48 1.90504e-48 1.9156e-48 1.92661e-48 1.93833e-48 1.95102e-48 1.9649e-48 1.98012e-48 1.9967e-48 2.01448e-48 2.03309e-48 2.05192e-48 2.0701e-48 2.08655e-48 2.09996e-48 2.10889e-48 2.11183e-48 2.10724e-48 2.09371e-48 2.06999e-48 2.03507e-48 1.98829e-48 1.92935e-48 1.85837e-48 1.77586e-48 1.6828e-48 1.5805e-48 1.47063e-48 1.3551e-48 1.23603e-48 1.11559e-48 9.95964e-49 8.7921e-49 7.67204e-49 6.61555e-49 5.63551e-49 4.74129e-49 3.93868e-49 3.22997e-49 2.61428e-49 2.08801e-49 1.64538e-49 1.27908e-49 9.80769e-50 7.41705e-50 5.53162e-50 4.06816e-50 2.95014e-50 2.10945e-50 1.48719e-50 1.03377e-50 7.08502e-51 4.78763e-51 3.18983e-51 2.09553e-51 1.35742e-51 8.6705e-52 5.46141e-52 3.3925e-52 2.07833e-52 1.25579e-52 7.48436e-53 4.40009e-53 2.55194e-53 1.46021e-53 8.24388e-54 4.59258e-54 2.5248e-54 1.36988e-54 7.33608e-55 3.878e-55 2.02375e-55 1.04268e-55 5.30432e-56 2.66463e-56 1.32194e-56 6.47738e-57 3.13498e-57 1.49881e-57 7.07807e-58 3.29947e-58 1.5124e-58 6.67834e-59 2.51529e-59 0 
0 1.57103e-78 5.86937e-78 2.02257e-77 6.87229e-77 2.31429e-76 7.727e-76 2.55782e-75 8.39397e-75 2.73073e-74 8.80596e-74 2.8147e-73 8.91701e-73 2.79968e-72 8.71105e-72 2.68582e-71 8.2054e-71 2.48375e-70 7.44853e-70 2.21288e-69 6.51238e-69 1.89838e-68 5.48098e-68 1.56722e-67 4.43782e-67 1.24435e-66 3.45472e-66 9.4962e-66 2.58415e-65 6.96117e-65 1.85613e-64 4.89846e-64 1.27938e-63 3.3067e-63 8.45678e-63 2.1399e-62 5.35701e-62 1.32664e-61 3.24974e-61 7.87348e-61 1.88656e-60 4.47009e-60 1.04729e-59 2.42593e-59 5.55535e-59 1.25754e-58 2.81365e-58 6.22172e-58 1.35957e-57 2.9356e-57 6.26263e-57 1.31988e-56 2.74779e-56 5.65019e-56 1.14743e-55 2.30104e-55 4.55633e-55 8.90742e-55 1.71905e-54 3.27476e-54 6.15714e-54 1.14246e-53 2.09179e-53 3.7789e-53 6.735e-53 1.18411e-52 2.05342e-52 3.51203e-52 5.92361e-52 9.85191e-52 1.61554e-51 2.61181e-51 4.16244e-51 6.53888e-51 1.01244e-50 1.54495e-50 2.3233e-50 3.4428e-50 5.027e-50 7.23223e-50 1.02514e-49 1.4316e-49 1.96961e-49 2.66962e-49 3.56474e-49 4.68943e-49 6.07766e-49 7.76063e-49 9.76402e-49 1.21051e-48 1.47899e-48 1.78107e-48 2.11441e-48 2.47506e-48 2.85746e-48 3.25465e-48 3.65862e-48 4.06072e-48 4.45222e-48 4.82492e-48 5.17164e-48 5.48677e-48 5.76661e-48 6.00958e-48 6.21621e-48 6.38896e-48 6.5319e-48 6.65023e-48 6.74976e-48 6.83634e-48 6.91541e-48 6.99154e-48 7.06824e-48 7.14774e-48 7.23111e-48 7.31832e-48 7.40853e-48 7.50036e-48 7.5922e-48 7.68244e-48 7.76973e-48 7.85306e-48 7.93187e-48 8.00595e-48 8.07539e-48 8.14042e-48 8.20124e-48 8.25791e-48 8.31016e-48 8.35737e-48 8.39851e-48 8.43218e-48 8.45667e-48 8.47012e-48 8.47061e-48 8.45641e-48 8.42608e-48 8.37864e-48 8.31373e-48 8.23163e-48 8.1334e-48 8.02079e-48 7.89624e-48 7.76274e-48 7.62376e-48 7.48302e-48 7.34434e-48 7.21144e-48 7.08775e-48 6.97623e-48 6.87926e-48 6.79849e-48 6.73485e-48 6.68848e-48 6.65883e-48 6.64473e-48 6.64456e-48 6.65633e-48 6.67795e-48 6.70727e-48 6.7423e-48 6.78129e-48 6.82274e-48 6.8655e-48 6.90869e-48 6.95169e-48 6.9941e-48 7.03569e-48 7.07637e-48 7.11618e-48 7.15531e-48 7.19408e-48 7.23301e-48 7.2728e-48 7.31431e-48 7.35853e-48 7.40644e-48 7.4589e-48 7.51647e-48 7.57925e-48 7.64664e-48 7.71727e-48 7.78883e-48 7.85808e-48 7.92089e-48 7.97236e-48 8.00701e-48 8.01909e-48 8.00282e-48 7.95278e-48 7.86419e-48 7.73323e-48 7.55731e-48 7.33524e-48 7.06739e-48 6.75571e-48 6.40375e-48 6.01649e-48 5.60018e-48 5.16209e-48 4.71018e-48 4.25274e-48 3.79804e-48 3.35396e-48 2.92766e-48 2.52531e-48 2.15186e-48 1.81094e-48 1.50478e-48 1.23432e-48 9.99253e-49 7.98253e-49 6.29144e-49 4.8915e-49 3.75114e-49 2.83705e-49 2.11601e-49 1.55625e-49 1.12858e-49 8.06961e-50 5.68896e-50 3.95426e-50 2.70986e-50 1.83096e-50 1.21975e-50 8.01189e-51 5.18899e-51 3.31385e-51 2.08692e-51 1.29607e-51 7.93817e-52 4.79529e-52 2.8572e-52 1.67931e-52 9.73678e-53 5.56971e-53 3.14353e-53 1.75068e-53 9.62143e-54 5.2186e-54 2.79377e-54 1.47634e-54 7.70172e-55 3.96672e-55 2.01725e-55 1.01301e-55 5.02386e-56 2.46076e-56 1.19056e-56 5.68996e-57 2.6861e-57 1.2517e-57 5.73554e-58 2.53186e-58 9.53357e-59 0 
0 5.41445e-78 2.02317e-77 6.97312e-77 2.3698e-76 7.98212e-76 2.66565e-75 8.82583e-75 2.89702e-74 9.42676e-74 3.04062e-73 9.72127e-73 3.08047e-72 9.67422e-72 3.01087e-71 9.28569e-71 2.83763e-70 8.5918e-70 2.57734e-69 7.65924e-69 2.25474e-68 6.57467e-68 1.89882e-67 5.43121e-67 1.53843e-66 4.31513e-66 1.19843e-65 3.29534e-65 8.97062e-65 2.41738e-64 6.44807e-64 1.70233e-63 4.44786e-63 1.15004e-62 2.94237e-62 7.44835e-62 1.86538e-61 4.62146e-61 1.13255e-60 2.74513e-60 6.58043e-60 1.55989e-59 3.65626e-59 8.47317e-59 1.94123e-58 4.39633e-58 9.84105e-58 2.17715e-57 4.75977e-57 1.02823e-56 2.19463e-56 4.62755e-56 9.63863e-56 1.98294e-55 4.02889e-55 8.08352e-55 1.60143e-54 3.13228e-54 6.04802e-54 1.15271e-53 2.16837e-53 4.02538e-53 7.37385e-53 1.33276e-52 2.37646e-52 4.1801e-52 7.25229e-52 1.24094e-51 2.09398e-51 3.48412e-51 5.71575e-51 9.24426e-51 1.47384e-50 2.31615e-50 3.58748e-50 5.47622e-50 8.23777e-50 1.22109e-49 1.78346e-49 2.56647e-49 3.63868e-49 5.08242e-49 6.99363e-49 9.48056e-49 1.26608e-48 1.66566e-48 2.15886e-48 2.7567e-48 3.46826e-48 4.29958e-48 5.25269e-48 6.32469e-48 7.50713e-48 8.78574e-48 1.01406e-47 1.15468e-47 1.29758e-47 1.43966e-47 1.57782e-47 1.70914e-47 1.83108e-47 1.94167e-47 2.0396e-47 2.12434e-47 2.19611e-47 2.2558e-47 2.30489e-47 2.34526e-47 2.37898e-47 2.40817e-47 2.43475e-47 2.46037e-47 2.48627e-47 2.51326e-47 2.5417e-47 2.57158e-47 2.60262e-47 2.6343e-47 2.66606e-47 2.69733e-47 2.7276e-47 2.75654e-47 2.78392e-47 2.80968e-47 2.83383e-47 2.85647e-47 2.87765e-47 2.8974e-47 2.91562e-47 2.9321e-47 2.94648e-47 2.95826e-47 2.96686e-47 2.9716e-47 2.97182e-47 2.96692e-47 2.95639e-47 2.93988e-47 2.91726e-47 2.88863e-47 2.85437e-47 2.81507e-47 2.7716e-47 2.725e-47 2.67648e-47 2.62735e-47 2.57893e-47 2.53254e-47 2.48937e-47 2.45045e-47 2.41662e-47 2.38846e-47 2.36627e-47 2.35013e-47 2.33982e-47 2.33494e-47 2.33491e-47 2.33905e-47 2.34662e-47 2.35686e-47 2.36909e-47 2.38268e-47 2.39712e-47 2.41201e-47 2.42705e-47 2.44201e-47 2.45676e-47 2.47123e-47 2.48539e-47 2.49924e-47 2.51285e-47 2.52634e-47 2.53989e-47 2.55375e-47 2.56821e-47 2.58363e-47 2.60034e-47 2.61866e-47 2.63879e-47 2.66077e-47 2.68439e-47 2.70919e-47 2.73436e-47 2.75877e-47 2.78098e-47 2.79929e-47 2.81176e-47 2.8164e-47 2.81116e-47 2.79414e-47 2.76365e-47 2.71834e-47 2.65727e-47 2.58001e-47 2.48665e-47 2.37786e-47 2.25484e-47 2.11933e-47 1.97349e-47 1.81987e-47 1.66126e-47 1.50055e-47 1.34067e-47 1.1844e-47 1.03427e-47 8.92466e-48 7.6076e-48 6.40445e-48 5.32339e-48 4.36784e-48 3.53694e-48 2.82613e-48 2.22786e-48 1.73243e-48 1.32873e-48 1.00505e-48 7.49667e-49 5.51379e-49 3.9986e-49 2.85906e-49 2.01551e-49 1.40083e-49 9.59895e-50 6.4849e-50 4.31947e-50 2.83673e-50 1.83688e-50 1.17283e-50 7.38426e-51 4.58475e-51 2.80731e-51 1.69535e-51 1.00984e-51 5.93337e-52 3.43908e-52 1.96657e-52 1.10953e-52 6.17688e-53 3.39343e-53 1.83987e-53 9.84585e-54 5.2009e-54 2.71209e-54 1.39628e-54 7.09777e-55 3.56285e-55 1.7662e-55 8.64752e-56 4.18207e-56 1.99788e-56 9.42759e-57 4.39135e-57 2.0114e-57 8.87572e-58 3.34118e-58 0 
0 1.83997e-77 6.87641e-77 2.37052e-76 8.05787e-76 2.71469e-75 9.06779e-75 3.00299e-74 9.85939e-74 3.20897e-73 1.03532e-72 3.31088e-72 1.04942e-71 3.29659e-71 1.02626e-70 3.16594e-70 9.67759e-70 2.93105e-69 8.7951e-69 2.6145e-68 7.69903e-68 2.2457e-67 6.48791e-67 1.85636e-66 5.26007e-66 1.47591e-65 4.10048e-65 1.12793e-64 3.07159e-64 8.28037e-64 2.20955e-63 5.83564e-63 1.52535e-62 3.94557e-62 1.00989e-61 2.55752e-61 6.40787e-61 1.58824e-60 3.89391e-60 9.44249e-60 2.26452e-59 5.37052e-59 1.2594e-58 2.91998e-58 6.69301e-58 1.51651e-57 3.39634e-57 7.51749e-57 1.64433e-56 3.55398e-56 7.58939e-56 1.6011e-55 3.33663e-55 6.86794e-55 1.39614e-54 2.80267e-54 5.55528e-54 1.08714e-53 2.10022e-53 4.00496e-53 7.53766e-53 1.40002e-52 2.56593e-52 4.64004e-52 8.27786e-52 1.45676e-51 2.52865e-51 4.32884e-51 7.30793e-51 1.2165e-50 1.99658e-50 3.2305e-50 5.1526e-50 8.10059e-50 1.25517e-49 1.91668e-49 2.8842e-49 4.27659e-49 6.248e-49 8.9935e-49 1.27538e-48 1.7818e-48 2.45228e-48 3.3248e-48 4.44062e-48 5.84261e-48 7.57295e-48 9.67022e-48 1.2166e-47 1.50812e-47 1.84224e-47 2.2179e-47 2.63207e-47 3.07967e-47 3.55365e-47 4.0452e-47 4.5442e-47 5.03981e-47 5.52109e-47 5.97779e-47 6.40104e-47 6.78393e-47 7.12201e-47 7.41347e-47 7.65916e-47 7.86236e-47 8.02836e-47 8.16382e-47 8.27613e-47 8.37271e-47 8.46044e-47 8.54508e-47 8.63101e-47 8.72106e-47 8.81653e-47 8.91739e-47 9.02256e-47 9.13031e-47 9.23858e-47 9.34536e-47 9.44892e-47 9.54799e-47 9.64183e-47 9.73015e-47 9.81303e-47 9.89073e-47 9.96351e-47 1.00314e-46 1.00941e-46 1.01509e-46 1.02004e-46 1.02411e-46 1.02709e-46 1.02874e-46 1.02884e-46 1.02717e-46 1.02356e-46 1.01789e-46 1.01011e-46 1.00027e-46 9.88476e-47 9.74949e-47 9.59979e-47 9.4393e-47 9.27219e-47 9.10296e-47 8.93621e-47 8.77643e-47 8.62777e-47 8.49379e-47 8.37735e-47 8.28046e-47 8.20419e-47 8.14872e-47 8.11337e-47 8.09672e-47 8.09676e-47 8.11113e-47 8.13725e-47 8.17255e-47 8.21464e-47 8.26139e-47 8.31104e-47 8.36219e-47 8.4138e-47 8.46516e-47 8.5158e-47 8.56545e-47 8.61401e-47 8.66155e-47 8.70827e-47 8.75459e-47 8.80112e-47 8.84871e-47 8.89842e-47 8.95143e-47 9.00897e-47 9.0721e-47 9.14156e-47 9.21747e-47 9.2992e-47 9.38511e-47 9.47249e-47 9.55745e-47 9.63502e-47 9.69932e-47 9.74372e-47 9.76124e-47 9.74486e-47 9.68794e-47 9.5846e-47 9.43008e-47 9.22109e-47 8.956e-47 8.63508e-47 8.26049e-47 7.83635e-47 7.36853e-47 6.8645e-47 6.33298e-47 5.7836e-47 5.22645e-47 4.67165e-47 4.12889e-47 3.60703e-47 3.11374e-47 2.65524e-47 2.23611e-47 1.85927e-47 1.52599e-47 1.23604e-47 9.87875e-48 7.78914e-48 6.05804e-48 4.64704e-48 3.5154e-48 2.62235e-48 1.92883e-48 1.3988e-48 1.00015e-48 7.05027e-49 4.89974e-49 3.35711e-49 2.2677e-49 1.51024e-49 9.91637e-50 6.41985e-50 4.09808e-50 2.57954e-50 1.60115e-50 9.80124e-51 5.91719e-51 3.52345e-51 2.06953e-51 1.19911e-51 6.85436e-52 3.86575e-52 2.15128e-52 1.18139e-52 6.40275e-53 3.42495e-53 1.80842e-53 9.42629e-54 4.8509e-54 2.46482e-54 1.23672e-54 6.1281e-55 2.99907e-55 1.44976e-55 6.92282e-56 3.26531e-56 1.52032e-56 6.96067e-57 3.07035e-57 1.15546e-57 0 
0 6.19705e-77 2.31639e-76 7.987e-76 2.71553e-75 9.15061e-75 3.05725e-74 1.01271e-73 3.32573e-73 1.0827e-72 3.49403e-72 1.11766e-71 3.54351e-71 1.11344e-70 3.46723e-70 1.06992e-69 3.27148e-69 9.9113e-69 2.97497e-68 8.84641e-68 2.60588e-67 7.60352e-67 2.19742e-66 6.28957e-66 1.7828e-65 5.00413e-65 1.39079e-64 3.82711e-64 1.04261e-63 2.81175e-63 7.5059e-63 1.98319e-62 5.18592e-62 1.34199e-61 3.43635e-61 8.7063e-61 2.18233e-60 5.41149e-60 1.32735e-59 3.22024e-59 7.72652e-59 1.83329e-58 4.30121e-58 9.97745e-58 2.28811e-57 5.18704e-57 1.16227e-56 2.57389e-56 5.6329e-56 1.21811e-55 2.6026e-55 5.49351e-55 1.14543e-54 2.35897e-54 4.79799e-54 9.63687e-54 1.9112e-53 3.74215e-53 7.23329e-53 1.38007e-52 2.59881e-52 4.82952e-52 8.85614e-52 1.60232e-51 2.86004e-51 5.03576e-51 8.74547e-51 1.49789e-50 2.52996e-50 4.21345e-50 6.91846e-50 1.11992e-49 1.78702e-49 2.81059e-49 4.35666e-49 6.65523e-49 1.00182e-48 1.48595e-48 2.1716e-48 3.12671e-48 4.43513e-48 6.19754e-48 8.53124e-48 1.15685e-47 1.54528e-47 2.03333e-47 2.63565e-47 3.36562e-47 4.23414e-47 5.24836e-47 6.41045e-47 7.71649e-47 9.15572e-47 1.07102e-46 1.23551e-46 1.40596e-46 1.57882e-46 1.75029e-46 1.91657e-46 2.07408e-46 2.21975e-46 2.35119e-46 2.46687e-46 2.56621e-46 2.64953e-46 2.71802e-46 2.77356e-46 2.81848e-46 2.85541e-46 2.88695e-46 2.91549e-46 2.94308e-46 2.97122e-46 3.00092e-46 3.03261e-46 3.06629e-46 3.10158e-46 3.13787e-46 3.17443e-46 3.21057e-46 3.24567e-46 3.27929e-46 3.31117e-46 3.34118e-46 3.36937e-46 3.39582e-46 3.4206e-46 3.44374e-46 3.46513e-46 3.48451e-46 3.50146e-46 3.5154e-46 3.5256e-46 3.5313e-46 3.53171e-46 3.52608e-46 3.51382e-46 3.49453e-46 3.46803e-46 3.43446e-46 3.39422e-46 3.34805e-46 3.29694e-46 3.24214e-46 3.18508e-46 3.12729e-46 3.07034e-46 3.01579e-46 2.96503e-46 2.9193e-46 2.87957e-46 2.84652e-46 2.82052e-46 2.80164e-46 2.78962e-46 2.78398e-46 2.78405e-46 2.78899e-46 2.79793e-46 2.80999e-46 2.82436e-46 2.8403e-46 2.85722e-46 2.87464e-46 2.89221e-46 2.90968e-46 2.92691e-46 2.9438e-46 2.96032e-46 2.97649e-46 2.99239e-46 3.00815e-46 3.02399e-46 3.0402e-46 3.05713e-46 3.07521e-46 3.09485e-46 3.11642e-46 3.14018e-46 3.16619e-46 3.19422e-46 3.22375e-46 3.25384e-46 3.28317e-46 3.31004e-46 3.33246e-46 3.34814e-46 3.35469e-46 3.3497e-46 3.33089e-46 3.29622e-46 3.24403e-46 3.17316e-46 3.08304e-46 2.9737e-46 2.84587e-46 2.7009e-46 2.54079e-46 2.36808e-46 2.18574e-46 1.99706e-46 1.80553e-46 1.61461e-46 1.42767e-46 1.24777e-46 1.07757e-46 9.19263e-47 7.74445e-47 6.44154e-47 5.28854e-47 4.28488e-47 3.42545e-47 2.70146e-47 2.10146e-47 1.61224e-47 1.21977e-47 9.09973e-48 6.69346e-48 4.85423e-48 3.47072e-48 2.44646e-48 1.70008e-48 1.1647e-48 7.86637e-49 5.23794e-49 3.43862e-49 2.22568e-49 1.42041e-49 8.93842e-50 5.54663e-50 3.39427e-50 2.04853e-50 1.21941e-50 7.15976e-51 4.14693e-51 2.36958e-51 1.33588e-51 7.43116e-52 4.07921e-52 2.20987e-52 1.1816e-52 6.23629e-53 3.24921e-53 1.67135e-53 8.48861e-54 4.25724e-54 2.10856e-54 1.03145e-54 4.98382e-55 2.37877e-55 1.12149e-55 5.21929e-56 2.38857e-56 1.05318e-56 3.96223e-57 0 
0 2.06935e-76 7.73642e-76 2.66811e-75 9.07341e-75 3.0582e-74 1.022e-73 3.38616e-73 1.11229e-72 3.62201e-72 1.16918e-71 3.74094e-71 1.18638e-70 3.72887e-70 1.1615e-69 3.58522e-69 1.09658e-68 3.32324e-68 9.97815e-68 2.96808e-67 8.74597e-67 2.55279e-66 7.38015e-66 2.11313e-65 5.99193e-65 1.68249e-64 4.67789e-64 1.28774e-63 3.50952e-63 9.46841e-63 2.52861e-62 6.68382e-62 1.74852e-61 4.52669e-61 1.15963e-60 2.93936e-60 7.37117e-60 1.82867e-59 4.48755e-59 1.08923e-58 2.61472e-58 6.20708e-58 1.45701e-57 3.38152e-57 7.75875e-57 1.75979e-56 3.94524e-56 8.74157e-56 1.91409e-55 4.14144e-55 8.85337e-55 1.86978e-54 3.90077e-54 8.0379e-54 1.63577e-53 3.28731e-53 6.52309e-53 1.27794e-52 2.47155e-52 4.71822e-52 8.88978e-52 1.65295e-51 3.03277e-51 5.4901e-51 9.80473e-51 1.72727e-50 3.00126e-50 5.14309e-50 8.6911e-50 1.44814e-49 2.37897e-49 3.85271e-49 6.15038e-49 9.67732e-49 1.50068e-48 2.29332e-48 3.45342e-48 5.12403e-48 7.49069e-48 1.07883e-47 1.53068e-47 2.13942e-47 2.9456e-47 3.99492e-47 5.33696e-47 7.02319e-47 9.1041e-47 1.16257e-46 1.46254e-46 1.81275e-46 2.21388e-46 2.66451e-46 3.16084e-46 3.6966e-46 4.26309e-46 4.84958e-46 5.44374e-46 6.03239e-46 6.60234e-46 7.14127e-46 7.63855e-46 8.08604e-46 8.47855e-46 8.81415e-46 9.09414e-46 9.32273e-46 9.50654e-46 9.65383e-46 9.77369e-46 9.87522e-46 9.96678e-46 1.00554e-45 1.01464e-45 1.02431e-45 1.03472e-45 1.04585e-45 1.05757e-45 1.06968e-45 1.08192e-45 1.09404e-45 1.10583e-45 1.11715e-45 1.12788e-45 1.13799e-45 1.1475e-45 1.15642e-45 1.16479e-45 1.17262e-45 1.17985e-45 1.18642e-45 1.19216e-45 1.1969e-45 1.20037e-45 1.20232e-45 1.20248e-45 1.2006e-45 1.19648e-45 1.18997e-45 1.18101e-45 1.16965e-45 1.15604e-45 1.14041e-45 1.12311e-45 1.10455e-45 1.08522e-45 1.06565e-45 1.04636e-45 1.02789e-45 1.0107e-45 9.95219e-46 9.81773e-46 9.70594e-46 9.61806e-46 9.55427e-46 9.51376e-46 9.49486e-46 9.49523e-46 9.5121e-46 9.54247e-46 9.58336e-46 9.63199e-46 9.6859e-46 9.74306e-46 9.80189e-46 9.86119e-46 9.92016e-46 9.97828e-46 1.00353e-45 1.0091e-45 1.01455e-45 1.01992e-45 1.02524e-45 1.03059e-45 1.03606e-45 1.04178e-45 1.04789e-45 1.05454e-45 1.06185e-45 1.06991e-45 1.07875e-45 1.0883e-45 1.09836e-45 1.10864e-45 1.11869e-45 1.12793e-45 1.13568e-45 1.14118e-45 1.14361e-45 1.14214e-45 1.13599e-45 1.12448e-45 1.10701e-45 1.0832e-45 1.05283e-45 1.0159e-45 9.72643e-46 9.23512e-46 8.69173e-46 8.10478e-46 7.48436e-46 6.84166e-46 6.18849e-46 5.53679e-46 4.89803e-46 4.28277e-46 3.70022e-46 3.15791e-46 2.66144e-46 2.21448e-46 1.81869e-46 1.47397e-46 1.17864e-46 9.29735e-47 7.23374e-47 5.55057e-47 4.19988e-47 3.13345e-47 2.30497e-47 1.67163e-47 1.19517e-47 8.42412e-48 5.85354e-48 4.0097e-48 2.70775e-48 1.80268e-48 1.18319e-48 7.65659e-49 4.88515e-49 3.07331e-49 1.90655e-49 1.16635e-49 7.03688e-50 4.18731e-50 2.45769e-50 1.42295e-50 8.12764e-51 4.58021e-51 2.54679e-51 1.39743e-51 7.56713e-52 4.04429e-52 2.13356e-52 1.11112e-52 5.71282e-53 2.90015e-53 1.45382e-53 7.19722e-54 3.51905e-54 1.69955e-54 8.10813e-55 3.82088e-55 1.77736e-55 8.13033e-56 3.58339e-56 1.34771e-56 0 
0 6.85094e-76 2.56174e-75 8.83678e-75 3.00579e-74 1.01334e-73 3.38723e-73 1.12256e-72 3.68833e-72 1.20137e-71 3.87903e-71 1.24149e-70 3.93828e-70 1.23819e-69 3.85795e-69 1.1912e-68 3.64455e-68 1.10485e-67 3.31844e-67 9.87427e-67 2.91062e-66 8.49853e-66 2.45781e-65 7.03993e-65 1.99696e-64 5.60946e-64 1.56023e-63 4.29671e-63 1.17147e-62 3.16185e-62 8.44751e-62 2.23387e-61 5.84647e-61 1.51425e-60 3.88092e-60 9.84162e-60 2.46919e-59 6.12859e-59 1.50469e-58 3.65401e-58 8.77593e-58 2.08437e-57 4.89525e-57 1.13671e-56 2.60951e-56 5.92187e-56 1.32834e-55 2.94483e-55 6.4517e-55 1.3967e-54 2.98748e-54 6.31295e-54 1.31777e-53 2.71694e-53 5.53234e-53 1.11245e-52 2.20873e-52 4.32963e-52 8.37837e-52 1.60036e-51 3.01704e-51 5.61305e-51 1.03044e-50 1.86642e-50 3.33508e-50 5.87851e-50 1.02199e-49 1.75225e-49 2.9626e-49 4.93888e-49 8.11747e-49 1.31524e-48 2.10058e-48 3.30663e-48 5.12981e-48 7.84244e-48 1.18141e-47 1.75354e-47 2.56429e-47 3.69426e-47 5.24294e-47 7.32974e-47 1.00938e-46 1.36918e-46 1.82938e-46 2.4076e-46 3.12112e-46 3.98565e-46 5.0139e-46 6.21402e-46 7.5882e-46 9.13129e-46 1.083e-45 1.26624e-45 1.45985e-45 1.6601e-45 1.86274e-45 2.06324e-45 2.25707e-45 2.43999e-45 2.60837e-45 2.75946e-45 2.8915e-45 3.00387e-45 3.09708e-45 3.17261e-45 3.23279e-45 3.28049e-45 3.31886e-45 3.35105e-45 3.37995e-45 3.40799e-45 3.43698e-45 3.46809e-45 3.50187e-45 3.53827e-45 3.57685e-45 3.61686e-45 3.65744e-45 3.69773e-45 3.73702e-45 3.77474e-45 3.81057e-45 3.84437e-45 3.87616e-45 3.90602e-45 3.93405e-45 3.96027e-45 3.98455e-45 4.0066e-45 4.02593e-45 4.04186e-45 4.0536e-45 4.06023e-45 4.06086e-45 4.05463e-45 4.04085e-45 4.01905e-45 3.98904e-45 3.95095e-45 3.90526e-45 3.85279e-45 3.79468e-45 3.73236e-45 3.66744e-45 3.60169e-45 3.53691e-45 3.47486e-45 3.41715e-45 3.36518e-45 3.32005e-45 3.28255e-45 3.25308e-45 3.23172e-45 3.21818e-45 3.2119e-45 3.21208e-45 3.21779e-45 3.22802e-45 3.24176e-45 3.25809e-45 3.27617e-45 3.29532e-45 3.31502e-45 3.33487e-45 3.3546e-45 3.37404e-45 3.3931e-45 3.41175e-45 3.43e-45 3.44795e-45 3.46575e-45 3.48365e-45 3.50198e-45 3.52116e-45 3.54166e-45 3.56397e-45 3.58855e-45 3.61569e-45 3.64548e-45 3.6777e-45 3.71175e-45 3.7466e-45 3.78075e-45 3.81229e-45 3.83892e-45 3.85805e-45 3.86694e-45 3.8628e-45 3.84298e-45 3.8051e-45 3.74722e-45 3.66794e-45 3.56648e-45 3.44284e-45 3.29772e-45 3.13261e-45 2.94973e-45 2.75191e-45 2.54255e-45 2.3254e-45 2.10447e-45 1.8838e-45 1.66729e-45 1.45854e-45 1.26072e-45 1.0764e-45 9.07544e-46 7.55409e-46 6.20607e-46 5.03128e-46 4.02426e-46 3.17516e-46 2.47089e-46 1.89625e-46 1.43499e-46 1.07071e-46 7.87648e-47 5.7123e-47 4.08404e-47 2.87846e-47 1.99993e-47 1.36979e-47 9.24878e-48 6.15625e-48 4.03982e-48 2.6136e-48 1.66713e-48 1.04851e-48 6.50253e-49 3.97669e-49 2.39841e-49 1.42666e-49 8.37045e-50 4.84443e-50 2.76592e-50 1.55804e-50 8.65966e-51 4.74947e-51 2.57071e-51 1.3733e-51 7.24149e-52 3.76946e-52 1.93716e-52 9.8294e-53 4.92503e-53 2.437e-53 1.19099e-53 5.74917e-54 2.74146e-54 1.29126e-54 6.00372e-55 2.74505e-55 1.20935e-55 4.54689e-56 0 
0 2.24856e-75 8.40954e-75 2.90153e-74 9.87176e-74 3.32887e-73 1.11299e-72 3.6895e-72 1.21255e-71 3.95061e-71 1.27594e-70 4.08481e-70 1.29617e-69 4.07634e-69 1.27049e-68 3.92406e-68 1.20097e-67 3.64196e-67 1.09423e-66 3.25709e-66 9.60421e-66 2.80528e-65 8.11595e-65 2.32553e-64 6.59917e-64 1.85443e-63 5.16e-63 1.42159e-62 3.87751e-62 1.047e-61 2.79848e-61 7.40359e-61 1.93853e-60 5.02315e-60 1.288e-59 3.26779e-59 8.2026e-59 2.0369e-58 5.00348e-58 1.21567e-57 2.92122e-57 6.94181e-57 1.63118e-56 3.78975e-56 8.70475e-56 1.97649e-55 4.43594e-55 9.83974e-55 2.15697e-54 4.67222e-54 9.99945e-54 2.11425e-53 4.41589e-53 9.10996e-53 1.85611e-52 3.73448e-52 7.41912e-52 1.4552e-51 2.81766e-51 5.38526e-51 1.01584e-50 1.89104e-50 3.47361e-50 6.29532e-50 1.12555e-49 1.98505e-49 3.45298e-49 5.92356e-49 1.00206e-48 1.67138e-48 2.74845e-48 4.45541e-48 7.11917e-48 1.12117e-47 1.74012e-47 2.66139e-47 4.01077e-47 5.95526e-47 8.71162e-47 1.25543e-46 1.78222e-46 2.49219e-46 3.43272e-46 4.65715e-46 6.22333e-46 8.19117e-46 1.06193e-45 1.3561e-45 1.7059e-45 2.11407e-45 2.58126e-45 3.10565e-45 3.68259e-45 4.30453e-45 4.96111e-45 5.63958e-45 6.32535e-45 7.00292e-45 7.65683e-45 8.27268e-45 8.8382e-45 9.34403e-45 9.78437e-45 1.01573e-44 1.04646e-44 1.07116e-44 1.09064e-44 1.10589e-44 1.11799e-44 1.12803e-44 1.13699e-44 1.14571e-44 1.15481e-44 1.16468e-44 1.17551e-44 1.18729e-44 1.19985e-44 1.21294e-44 1.22628e-44 1.23955e-44 1.25252e-44 1.26499e-44 1.27685e-44 1.28804e-44 1.29858e-44 1.30849e-44 1.3178e-44 1.32651e-44 1.33459e-44 1.34193e-44 1.34838e-44 1.3537e-44 1.35763e-44 1.35987e-44 1.36011e-44 1.35806e-44 1.3535e-44 1.34627e-44 1.3363e-44 1.32363e-44 1.30842e-44 1.29095e-44 1.2716e-44 1.25084e-44 1.22922e-44 1.20732e-44 1.18574e-44 1.16507e-44 1.14585e-44 1.12855e-44 1.11353e-44 1.10105e-44 1.09126e-44 1.08416e-44 1.07968e-44 1.0776e-44 1.07768e-44 1.0796e-44 1.08302e-44 1.0876e-44 1.09303e-44 1.09905e-44 1.10541e-44 1.11195e-44 1.11854e-44 1.12509e-44 1.13154e-44 1.13786e-44 1.14404e-44 1.1501e-44 1.15605e-44 1.16196e-44 1.1679e-44 1.17399e-44 1.18036e-44 1.18718e-44 1.19461e-44 1.2028e-44 1.21186e-44 1.22183e-44 1.23262e-44 1.24404e-44 1.25576e-44 1.26728e-44 1.27796e-44 1.28704e-44 1.29365e-44 1.29687e-44 1.29577e-44 1.28947e-44 1.27714e-44 1.25815e-44 1.23199e-44 1.1984e-44 1.15737e-44 1.1091e-44 1.05409e-44 9.93062e-45 9.26951e-45 8.56885e-45 7.84122e-45 7.10002e-45 6.35884e-45 5.63087e-45 4.92831e-45 4.26189e-45 3.64043e-45 3.07061e-45 2.55685e-45 2.10132e-45 1.70408e-45 1.36338e-45 1.07597e-45 8.37484e-46 6.4282e-46 4.86513e-46 3.63039e-46 2.67076e-46 1.93695e-46 1.38479e-46 9.7595e-47 6.78016e-47 4.64327e-47 3.13462e-47 2.0861e-47 1.36863e-47 8.85229e-48 5.64505e-48 3.54932e-48 2.20047e-48 1.34527e-48 8.11066e-49 4.8227e-49 2.82844e-49 1.63631e-49 9.33854e-50 5.25812e-50 2.92118e-50 1.60142e-50 8.66388e-51 4.62616e-51 2.43823e-51 1.26858e-51 6.51614e-52 3.30475e-52 1.65503e-52 8.18532e-53 3.99826e-53 1.92909e-53 9.19418e-54 4.32843e-54 2.01151e-54 9.19275e-55 4.04815e-55 1.52151e-55 0 
0 7.31596e-75 2.73668e-74 9.4445e-74 3.21403e-73 1.08408e-72 3.62547e-72 1.20214e-71 3.95188e-71 1.28791e-70 4.16077e-70 1.33242e-69 4.22922e-69 1.33046e-68 4.14799e-68 1.28157e-67 3.92356e-67 1.19022e-66 3.57727e-66 1.06518e-65 3.14204e-65 9.1809e-65 2.65713e-64 7.61661e-64 2.16222e-63 6.07848e-63 1.69205e-62 4.66359e-62 1.27257e-61 3.43769e-61 9.19252e-61 2.43306e-60 6.37358e-60 1.65231e-59 4.23876e-59 1.07594e-58 2.70211e-58 6.71338e-58 1.64993e-57 4.01086e-57 9.64304e-57 2.29275e-56 5.39043e-56 1.25306e-55 2.87979e-55 6.54255e-55 1.46922e-54 3.26089e-54 7.1524e-54 1.5502e-53 3.31971e-53 7.02331e-53 1.4678e-52 3.02991e-52 6.17705e-52 1.24359e-51 2.4721e-51 4.85179e-51 9.4002e-51 1.79772e-50 3.39319e-50 6.32044e-50 1.16169e-49 2.10663e-49 3.76872e-49 6.65053e-49 1.15752e-48 1.98685e-48 3.36291e-48 5.61221e-48 9.23372e-48 1.49761e-47 2.39417e-47 3.77228e-47 5.85742e-47 8.96237e-47 1.35119e-46 2.00704e-46 2.93701e-46 4.23388e-46 6.01217e-46 8.40934e-46 1.15855e-45 1.57208e-45 2.10106e-45 2.7657e-45 3.58576e-45 4.57912e-45 5.76011e-45 7.13776e-45 8.71405e-45 1.04825e-44 1.2427e-44 1.45217e-44 1.67312e-44 1.90121e-44 2.13146e-44 2.35864e-44 2.57749e-44 2.78315e-44 2.97151e-44 3.13943e-44 3.285e-44 3.40762e-44 3.50798e-44 3.58791e-44 3.6502e-44 3.69826e-44 3.7358e-44 3.76652e-44 3.79378e-44 3.82038e-44 3.84846e-44 3.87933e-44 3.91362e-44 3.95127e-44 3.99175e-44 4.03418e-44 4.07756e-44 4.12089e-44 4.16331e-44 4.20417e-44 4.24308e-44 4.27985e-44 4.31448e-44 4.34707e-44 4.37772e-44 4.40643e-44 4.43308e-44 4.45733e-44 4.47865e-44 4.49629e-44 4.50935e-44 4.51683e-44 4.51771e-44 4.51105e-44 4.49609e-44 4.47229e-44 4.43942e-44 4.39764e-44 4.34746e-44 4.28979e-44 4.22589e-44 4.15733e-44 4.0859e-44 4.01355e-44 3.94228e-44 3.87402e-44 3.81055e-44 3.75342e-44 3.70385e-44 3.6627e-44 3.63041e-44 3.60706e-44 3.59231e-44 3.58554e-44 3.58587e-44 3.59225e-44 3.60358e-44 3.61872e-44 3.63666e-44 3.65649e-44 3.67746e-44 3.699e-44 3.72068e-44 3.74221e-44 3.76342e-44 3.78421e-44 3.80454e-44 3.82446e-44 3.84405e-44 3.86348e-44 3.88304e-44 3.90308e-44 3.92408e-44 3.94657e-44 3.97111e-44 3.99819e-44 4.02819e-44 4.06123e-44 4.09709e-44 4.13512e-44 4.17423e-44 4.21278e-44 4.24867e-44 4.27938e-44 4.30204e-44 4.31361e-44 4.31098e-44 4.29118e-44 4.25153e-44 4.18978e-44 4.10429e-44 3.99413e-44 3.85915e-44 3.70003e-44 3.51833e-44 3.3164e-44 3.09731e-44 2.86479e-44 2.62299e-44 2.37636e-44 2.12946e-44 1.88668e-44 1.65212e-44 1.42942e-44 1.22155e-44 1.03079e-44 8.58665e-45 7.05939e-45 5.72673e-45 4.58309e-45 3.61784e-45 2.81653e-45 2.16222e-45 1.63666e-45 1.22139e-45 8.98578e-46 6.51692e-46 4.65904e-46 3.2833e-46 2.28076e-46 1.56172e-46 1.05413e-46 7.01384e-47 4.60053e-47 2.97487e-47 1.89652e-47 1.19207e-47 7.38805e-48 4.51513e-48 2.72118e-48 1.61742e-48 9.48207e-49 5.48323e-49 3.12797e-49 1.76043e-49 9.7757e-50 5.35661e-50 2.8966e-50 1.54592e-50 8.14377e-51 4.23497e-51 2.17423e-51 1.10213e-51 5.51669e-52 2.727e-52 1.33137e-52 6.42031e-53 3.05839e-53 1.43909e-53 6.68436e-54 3.05329e-54 1.34395e-54 5.04956e-55 0 