# vtk DataFile Version 3.0
Gray-Scott Simulation Output
ASCII
DATASET STRUCTURED_POINTS
DIMENSIONS 256 256 1
SPACING 1.0 1.0 1.0
ORIGIN 0 0 0
POINT_DATA 65536
SCALARS u double
LOOKUP_TABLE default
0 0 0 0 0 0 0 0 0 0 0 0 0 0 0 0 0 0 0 0 0 0 0 0 0 0 0 0 0 0 0 0 0 0 0 0 0 0 0 0 0 0 0 0 0 0 0 0 0 0 0 0 0 0 0 0 0 0 0 0 0 0 0 0 0 0 0 0 0 0 0 0 0 0 0 0 0 0 0 0 0 0 0 0 0 0 0 0 0 0 0 0 0 0 0 0 0 0 0 0 0 0 0 0 0 0 0 0 0 0 0 0 0 0 0 0 0 0 0 0 0 0 0 0 0 0 0 0 0 0 0 0 0 0 0 0 0 0 0 0 0 0 0 0 0 0 0 0 0 0 0 0 0 0 0 0 0 0 0 0 0 0 0 0 0 0 0 0 0 0 0 0 0 0 0 0 0 0 0 0 0 0 0 0 0 0 0 0 0 0 0 0 0 0 0 0 0 0 0 0 0 0 0 0 0 0 0 0 0 0 0 0 0 0 0 0 0 0 0 0 0 0 0 0 0 0 0 0 0 0 0 0 0 0 0 0 0 0 0 0 0 0 0 0 0 0 0 0 0 0 0 0 0 0 0 0 
0 2.65707e-74 8.77165e-74 2.61573e-73 7.66446e-73 2.22584e-72 6.41244e-72 1.83271e-71 5.19621e-71 1.46144e-70 4.07715e-70 1.12821e-69 3.09638e-69 8.42811e-69 2.27506e-68 6.09003e-68 1.61653e-67 4.25465e-67 1.11028e-66 2.87255e-66 7.36785e-66 1.87339e-65 4.72177e-65 1.17962e-64 2.92088e-64 7.16796e-64 1.74324e-63 4.2012e-63 1.00326e-62 2.37385e-62 5.56496e-62 1.29244e-61 2.97351e-61 6.77658e-61 1.52969e-60 3.41992e-60 7.57218e-60 1.66029e-59 3.60477e-59 7.74937e-59 1.64938e-58 3.47542e-58 7.24926e-58 1.49674e-57 3.05868e-57 6.18615e-57 1.23815e-56 2.45221e-56 4.80552e-56 9.31721e-56 1.78714e-55 3.39097e-55 6.36424e-55 1.18138e-54 2.16881e-54 3.93733e-54 7.06799e-54 1.2545e-53 2.20133e-53 3.81864e-53 6.5479e-53 1.10977e-52 1.85893e-52 3.07722e-52 5.03368e-52 8.13597e-52 1.29926e-51 2.04982e-51 3.19472e-51 4.91831e-51 7.4789e-51 1.12323e-50 1.666e-50 2.44028e-50 3.52965e-50 5.04114e-50 7.10904e-50 9.89825e-50 1.36068e-49 1.84666e-49 2.47425e-49 3.27278e-49 4.2737e-49 5.5094e-49 7.01168e-49 8.80986e-49 1.09285e-48 1.3385e-48 1.61872e-48 1.93313e-48 2.27997e-48 2.65606e-48 3.05672e-48 3.47588e-48 3.90629e-48 4.33981e-48 4.76781e-48 5.18163e-48 5.57305e-48 5.93482e-48 6.26101e-48 6.54741e-48 6.7917e-48 6.99352e-48 7.15443e-48 7.27764e-48 7.36773e-48 7.43026e-48 7.47127e-48 7.49689e-48 7.51293e-48 7.52453e-48 7.53595e-48 7.55043e-48 7.57014e-48 7.59626e-48 7.62912e-48 7.66835e-48 7.71308e-48 7.76216e-48 7.8143e-48 7.86825e-48 7.92284e-48 7.97704e-48 8.02998e-48 8.08089e-48 8.12909e-48 8.17388e-48 8.21451e-48 8.25013e-48 8.27981e-48 8.30247e-48 8.31699e-48 8.3222e-48 8.31702e-48 8.30051e-48 8.27193e-48 8.23089e-48 8.17737e-48 8.11178e-48 8.03498e-48 7.94829e-48 7.85344e-48 7.75251e-48 7.64785e-48 7.54197e-48 7.43744e-48 7.33675e-48 7.24222e-48 7.15585e-48 7.0793e-48 7.01378e-48 6.96004e-48 6.91837e-48 6.88858e-48 6.87014e-48 6.86215e-48 6.86351e-48 6.87295e-48 6.88913e-48 6.91076e-48 6.93659e-48 6.96553e-48 6.99664e-48 7.02916e-48 7.06252e-48 7.09633e-48 7.13035e-48 7.16453e-48 7.19894e-48 7.2338e-48 7.26948e-48 7.30641e-48 7.34513e-48 7.38623e-48 7.43025e-48 7.47768e-48 7.52881e-48 7.58369e-48 7.64199e-48 7.70295e-48 7.76527e-48 7.82709e-48 7.88596e-48 7.93887e-48 7.98229e-48 8.0123e-48 8.02469e-48 8.01517e-48 7.97951e-48 7.91379e-48 7.81454e-48 7.67902e-48 7.50531e-48 7.29251e-48 7.04085e-48 6.75171e-48 6.42767e-48 6.07245e-48 5.69077e-48 5.28824e-48 4.87112e-48 4.44607e-48 4.0199e-48 3.59927e-48 3.19045e-48 2.79908e-48 2.42995e-48 2.08691e-48 1.77273e-48 1.48914e-48 1.23683e-48 1.01554e-48 8.24218e-49 6.61135e-49 5.2408e-49 4.10512e-49 3.17717e-49 2.4295e-49 1.83539e-49 1.36982e-49 1.00996e-49 7.35602e-50 5.29269e-50 3.76186e-50 2.64134e-50 1.83209e-50 1.25539e-50 8.49826e-51 5.68348e-51 3.75532e-51 2.45158e-51 1.58136e-51 1.00791e-51 6.3481e-52 3.9511e-52 2.43036e-52 1.4775e-52 8.87805e-53 5.27312e-53 3.09604e-53 1.79707e-53 1.03127e-53 5.85139e-54 3.28289e-54 1.82136e-54 9.99334e-55 5.42285e-55 2.91051e-55 1.545e-55 8.10903e-56 4.20188e-56 2.13591e-56 1.03631e-56 4.18792e-57 0 
0 8.77369e-74 2.89699e-73 8.64103e-73 2.5326e-72 7.35688e-72 2.12002e-71 6.06081e-71 1.71889e-70 4.83579e-70 1.34949e-69 3.73536e-69 1.02549e-68 2.79217e-68 7.5395e-68 2.01887e-67 5.36065e-67 1.41138e-66 3.68435e-66 9.53555e-66 2.44666e-65 6.22325e-65 1.5691e-64 3.92149e-64 9.71378e-64 2.38471e-63 5.80187e-63 1.3988e-62 3.34173e-62 7.91022e-62 1.85514e-61 4.31029e-61 9.9209e-61 2.26193e-60 5.10811e-60 1.14252e-59 2.53083e-59 5.55166e-59 1.2059e-58 2.59359e-58 5.52277e-58 1.16425e-57 2.42961e-57 5.01876e-57 1.0261e-56 2.07628e-56 4.15764e-56 8.23837e-56 1.61523e-55 3.1332e-55 6.01273e-55 1.14142e-54 2.14328e-54 3.98045e-54 7.3109e-54 1.32788e-53 2.38483e-53 4.23482e-53 7.4345e-53 1.29025e-52 2.21342e-52 3.75306e-52 6.28933e-52 1.04156e-51 1.70448e-51 2.75609e-51 4.40303e-51 6.9492e-51 1.08345e-50 1.66858e-50 2.53813e-50 3.81313e-50 5.65747e-50 8.2891e-50 1.19926e-49 1.71323e-49 2.41653e-49 3.3653e-49 4.62695e-49 6.28044e-49 8.41586e-49 1.1133e-48 1.45387e-48 1.8743e-48 2.38538e-48 2.99703e-48 3.71752e-48 4.55269e-48 5.50507e-48 6.57319e-48 7.75093e-48 9.02722e-48 1.03859e-47 1.18062e-47 1.32632e-47 1.4729e-47 1.61741e-47 1.7569e-47 1.88857e-47 2.00997e-47 2.11908e-47 2.21451e-47 2.29547e-47 2.3619e-47 2.41434e-47 2.45393e-47 2.48227e-47 2.50126e-47 2.51301e-47 2.5196e-47 2.52305e-47 2.5251e-47 2.52721e-47 2.5305e-47 2.53569e-47 2.54318e-47 2.55309e-47 2.56528e-47 2.57944e-47 2.59517e-47 2.61204e-47 2.6296e-47 2.64745e-47 2.66524e-47 2.68266e-47 2.69946e-47 2.71539e-47 2.73021e-47 2.74367e-47 2.75549e-47 2.76536e-47 2.7729e-47 2.77774e-47 2.77951e-47 2.77782e-47 2.77237e-47 2.76291e-47 2.7493e-47 2.73154e-47 2.70976e-47 2.68426e-47 2.65546e-47 2.62394e-47 2.5904e-47 2.55562e-47 2.52043e-47 2.48569e-47 2.45223e-47 2.42082e-47 2.39212e-47 2.36669e-47 2.34494e-47 2.3271e-47 2.31327e-47 2.30339e-47 2.29728e-47 2.29465e-47 2.29512e-47 2.29826e-47 2.30365e-47 2.31083e-47 2.3194e-47 2.329e-47 2.33932e-47 2.3501e-47 2.36115e-47 2.37235e-47 2.38362e-47 2.39494e-47 2.40634e-47 2.4179e-47 2.42973e-47 2.44199e-47 2.45485e-47 2.46852e-47 2.48318e-47 2.499e-47 2.51608e-47 2.53445e-47 2.554e-47 2.57448e-47 2.59548e-47 2.61638e-47 2.63637e-47 2.65445e-47 2.66945e-47 2.68006e-47 2.68487e-47 2.68245e-47 2.67137e-47 2.6503e-47 2.61808e-47 2.57374e-47 2.51664e-47 2.44643e-47 2.36315e-47 2.26725e-47 2.15955e-47 2.04127e-47 1.91398e-47 1.77953e-47 1.64002e-47 1.49768e-47 1.3548e-47 1.21363e-47 1.07629e-47 9.44682e-48 8.20452e-48 7.04909e-48 5.99013e-48 5.03362e-48 4.18208e-48 3.43484e-48 2.78846e-48 2.23724e-48 1.77382e-48 1.38967e-48 1.0757e-48 8.22653e-49 6.21539e-49 4.63904e-49 3.42045e-49 2.4913e-49 1.79247e-49 1.27397e-49 8.94444e-50 6.20351e-50 4.25031e-50 2.87683e-50 1.92368e-50 1.27084e-50 8.29485e-51 5.34939e-51 3.40878e-51 2.14642e-51 1.33561e-51 8.21327e-52 4.99174e-52 2.99857e-52 1.78046e-52 1.04504e-52 6.0639e-53 3.47868e-53 1.97312e-53 1.10662e-53 6.1374e-54 3.36621e-54 1.82599e-54 9.79667e-55 5.19845e-55 2.72741e-55 1.41274e-55 7.17868e-56 3.48185e-56 1.40675e-56 0 
0 2.61707e-73 8.64344e-73 2.5789e-72 7.56085e-72 2.19704e-71 6.33328e-71 1.81119e-70 5.13842e-70 1.44611e-69 4.03701e-69 1.11784e-68 3.07001e-68 8.3621e-68 2.25883e-67 6.05092e-67 1.60732e-66 4.23356e-66 1.10561e-65 2.86268e-65 7.3483e-65 1.86991e-64 4.71681e-64 1.17935e-63 2.92268e-63 7.17847e-63 1.74731e-62 4.2147e-62 1.00738e-61 2.38576e-61 5.598e-61 1.30132e-60 2.99676e-60 6.83608e-60 1.54461e-59 3.45666e-59 7.66106e-59 1.68146e-58 3.6544e-58 7.86406e-58 1.67551e-57 3.53413e-57 7.3794e-57 1.52521e-56 3.12014e-56 6.31715e-56 1.26572e-55 2.50949e-55 4.92302e-55 9.55524e-55 1.83476e-54 3.48506e-54 6.54781e-54 1.21675e-53 2.23611e-53 4.06378e-53 7.30262e-53 1.29748e-52 2.27909e-52 3.95753e-52 6.79283e-52 1.15241e-51 1.93221e-51 3.20154e-51 5.24186e-51 8.48004e-51 1.35539e-50 2.14016e-50 3.33821e-50 5.14323e-50 7.8267e-50 1.17629e-49 1.74587e-49 2.55885e-49 3.7033e-49 5.29197e-49 7.46636e-49 1.04003e-48 1.43023e-48 1.94167e-48 2.60224e-48 3.44277e-48 4.49629e-48 5.79676e-48 7.37742e-48 9.26876e-48 1.14961e-47 1.40771e-47 1.70192e-47 2.03171e-47 2.39513e-47 2.78868e-47 3.20728e-47 3.64442e-47 4.09232e-47 4.54229e-47 4.98516e-47 5.41177e-47 5.81348e-47 6.18268e-47 6.51325e-47 6.8009e-47 7.04337e-47 7.24052e-47 7.39419e-47 7.50802e-47 7.58708e-47 7.6374e-47 7.66554e-47 7.67811e-47 7.68132e-47 7.68067e-47 7.68069e-47 7.68479e-47 7.69527e-47 7.71334e-47 7.7393e-47 7.77272e-47 7.81263e-47 7.85777e-47 7.90674e-47 7.95815e-47 8.01073e-47 8.06336e-47 8.1151e-47 8.1651e-47 8.21264e-47 8.25696e-47 8.29729e-47 8.33276e-47 8.36239e-47 8.38511e-47 8.39976e-47 8.40517e-47 8.40022e-47 8.38396e-47 8.35564e-47 8.31486e-47 8.26158e-47 8.19621e-47 8.11961e-47 8.03308e-47 7.93837e-47 7.83755e-47 7.733e-47 7.62721e-47 7.52278e-47 7.4222e-47 7.32779e-47 7.24156e-47 7.16518e-47 7.09983e-47 7.04628e-47 7.0048e-47 6.9752e-47 6.95692e-47 6.94907e-47 6.95054e-47 6.96003e-47 6.97622e-47 6.9978e-47 7.02353e-47 7.05232e-47 7.08323e-47 7.11552e-47 7.14863e-47 7.18215e-47 7.2159e-47 7.24979e-47 7.28394e-47 7.31857e-47 7.35405e-47 7.39084e-47 7.4295e-47 7.47063e-47 7.51482e-47 7.56258e-47 7.61426e-47 7.66994e-47 7.72936e-47 7.79178e-47 7.85597e-47 7.92012e-47 7.98179e-47 8.038e-47 8.08522e-47 8.1195e-47 8.13658e-47 8.13209e-47 8.10168e-47 8.04129e-47 7.94727e-47 7.81669e-47 7.64741e-47 7.43832e-47 7.18942e-47 6.90191e-47 6.5782e-47 6.22189e-47 5.83765e-47 5.43108e-47 5.00849e-47 4.57667e-47 4.14258e-47 3.71312e-47 3.29479e-47 2.89348e-47 2.51427e-47 2.16124e-47 1.8374e-47 1.54465e-47 1.28384e-47 1.05482e-47 8.56589e-48 6.87453e-48 5.45186e-48 4.27208e-48 3.30745e-48 2.52976e-48 1.91151e-48 1.42681e-48 1.05206e-48 7.66278e-49 5.51319e-49 3.91822e-49 2.75072e-49 1.90758e-49 1.3068e-49 8.84369e-50 5.91251e-50 3.90518e-50 2.54834e-50 1.64303e-50 1.0467e-50 6.5889e-51 4.09868e-51 2.51965e-51 1.53083e-51 9.19257e-52 5.45626e-52 3.20134e-52 1.85686e-52 1.06479e-52 6.03705e-53 3.38445e-53 1.87623e-53 1.02861e-53 5.5772e-54 2.99089e-54 1.58635e-54 8.3191e-55 4.30716e-55 2.18767e-55 1.06067e-55 4.28412e-56 0 
0 7.67061e-73 2.53404e-72 7.56305e-72 2.21808e-71 6.44753e-71 1.85924e-70 5.31894e-70 1.50955e-69 4.24992e-69 1.18687e-68 3.28768e-68 9.03273e-68 2.46132e-67 6.65141e-67 1.78251e-66 4.73693e-66 1.24821e-65 3.26118e-65 8.44769e-65 2.16945e-64 5.52312e-64 1.39385e-63 3.48674e-63 8.64504e-63 2.12438e-62 5.17353e-62 1.24855e-61 2.98578e-61 7.07485e-61 1.66094e-60 3.86314e-60 8.90113e-60 2.03161e-59 4.59298e-59 1.02844e-58 2.28065e-58 5.00849e-58 1.08916e-57 2.34519e-57 4.9996e-57 1.05519e-56 2.20461e-56 4.55937e-56 9.33286e-56 1.89073e-55 3.79063e-55 7.52018e-55 1.4762e-54 2.86698e-54 5.50848e-54 1.04696e-53 1.96828e-53 3.65982e-53 6.73003e-53 1.22382e-52 2.20055e-52 3.91213e-52 6.87593e-52 1.19467e-51 2.05175e-51 3.48279e-51 5.84274e-51 9.68631e-51 1.58678e-50 2.56834e-50 4.10711e-50 6.48829e-50 1.01252e-49 1.5607e-49 2.37601e-49 3.57241e-49 5.30427e-49 7.77707e-49 1.12591e-48 1.60941e-48 2.27133e-48 3.16464e-48 4.35292e-48 5.91062e-48 7.92265e-48 1.04829e-47 1.36919e-47 1.76528e-47 2.24665e-47 2.82251e-47 3.5005e-47 4.28586e-47 5.18071e-47 6.18326e-47 7.28736e-47 8.48207e-47 9.75171e-47 1.10761e-46 1.24315e-46 1.3791e-46 1.51267e-46 1.64105e-46 1.76161e-46 1.87205e-46 1.97052e-46 2.05573e-46 2.12704e-46 2.18443e-46 2.22851e-46 2.26043e-46 2.28178e-46 2.29442e-46 2.30039e-46 2.30173e-46 2.30035e-46 2.29794e-46 2.29588e-46 2.29522e-46 2.29665e-46 2.30053e-46 2.30697e-46 2.3158e-46 2.32673e-46 2.33937e-46 2.35327e-46 2.36802e-46 2.3832e-46 2.39848e-46 2.41356e-46 2.42818e-46 2.44212e-46 2.45514e-46 2.46701e-46 2.47746e-46 2.48622e-46 2.49294e-46 2.4973e-46 2.49893e-46 2.4975e-46 2.49274e-46 2.48441e-46 2.4724e-46 2.45669e-46 2.43741e-46 2.41479e-46 2.38924e-46 2.36127e-46 2.33149e-46 2.30059e-46 2.26934e-46 2.23848e-46 2.20877e-46 2.18088e-46 2.15541e-46 2.13286e-46 2.11357e-46 2.09777e-46 2.08554e-46 2.07682e-46 2.07145e-46 2.06915e-46 2.0696e-46 2.07242e-46 2.07721e-46 2.08358e-46 2.09117e-46 2.09965e-46 2.10876e-46 2.11826e-46 2.128e-46 2.13787e-46 2.1478e-46 2.15777e-46 2.16782e-46 2.17802e-46 2.18847e-46 2.19932e-46 2.21074e-46 2.22291e-46 2.236e-46 2.25018e-46 2.26556e-46 2.28216e-46 2.29992e-46 2.31864e-46 2.33795e-46 2.35732e-46 2.37605e-46 2.39326e-46 2.4079e-46 2.41879e-46 2.42469e-46 2.42426e-46 2.41622e-46 2.39933e-46 2.37249e-46 2.33479e-46 2.28556e-46 2.22443e-46 2.15138e-46 2.06671e-46 1.97111e-46 1.86562e-46 1.75161e-46 1.63074e-46 1.50487e-46 1.37604e-46 1.24633e-46 1.11783e-46 9.92491e-47 8.72109e-47 7.58228e-47 6.521e-47 5.54655e-47 4.66491e-47 3.87882e-47 3.18807e-47 2.5898e-47 2.07905e-47 1.64922e-47 1.29261e-47 1.00093e-47 7.65687e-48 5.78624e-48 4.31936e-48 3.185e-48 2.31985e-48 1.66903e-48 1.18611e-48 8.3262e-49 5.77343e-49 3.95455e-49 2.67576e-49 1.78855e-49 1.18107e-49 7.70525e-50 4.96659e-50 3.16309e-50 1.99054e-50 1.23783e-50 7.6069e-51 4.61998e-51 2.77323e-51 1.64542e-51 9.65024e-52 5.59506e-52 3.20706e-52 1.81751e-52 1.01846e-52 5.64347e-53 3.09251e-53 1.67599e-53 8.98358e-54 4.76254e-54 2.49636e-54 1.29185e-54 6.55849e-55 3.17848e-55 1.28343e-55 0 
0 2.22828e-72 7.36324e-72 2.19833e-71 6.44942e-71 1.87538e-70 5.40984e-70 1.54822e-69 4.39559e-69 1.23798e-68 3.45864e-68 9.58437e-68 2.63432e-67 7.18118e-67 1.94144e-66 5.20506e-66 1.38382e-65 3.64806e-65 9.53557e-65 2.4712e-64 6.34926e-64 1.6172e-63 4.08325e-63 1.02193e-62 2.53505e-62 6.23264e-62 1.51863e-61 3.66688e-61 8.77365e-61 2.08005e-60 4.88594e-60 1.13704e-59 2.62134e-59 5.98639e-59 1.35416e-58 3.03393e-58 6.73198e-58 1.47928e-57 3.2188e-57 6.93497e-57 1.47934e-56 3.12415e-56 6.53135e-56 1.3516e-55 2.76841e-55 5.61202e-55 1.12584e-54 2.23497e-54 4.39001e-54 8.53145e-54 1.64024e-53 3.1195e-53 5.86835e-53 1.09186e-52 2.00908e-52 3.65572e-52 6.5774e-52 1.17005e-51 2.05773e-51 3.5774e-51 6.14756e-51 1.04414e-50 1.75266e-50 2.90725e-50 4.76516e-50 7.71697e-50 1.23468e-49 1.95149e-49 3.04683e-49 4.69857e-49 7.15629e-49 1.07642e-48 1.59889e-48 2.34515e-48 3.39633e-48 4.85636e-48 6.85567e-48 9.55446e-48 1.3145e-47 1.78524e-47 2.39334e-47 3.16715e-47 4.13702e-47 5.33405e-47 6.7886e-47 8.52835e-47 1.05761e-46 1.29473e-46 1.56478e-46 1.86718e-46 2.19998e-46 2.55982e-46 2.94188e-46 3.33998e-46 3.74684e-46 4.15432e-46 4.55389e-46 4.93708e-46 5.29592e-46 5.62347e-46 5.91421e-46 6.16434e-46 6.37198e-46 6.53725e-46 6.66208e-46 6.7501e-46 6.80621e-46 6.83618e-46 6.84626e-46 6.84268e-46 6.83128e-46 6.81721e-46 6.80468e-46 6.79684e-46 6.79579e-46 6.80263e-46 6.81757e-46 6.84017e-46 6.86949e-46 6.90431e-46 6.94327e-46 6.98505e-46 7.02843e-46 7.07234e-46 7.11586e-46 7.1582e-46 7.19866e-46 7.23656e-46 7.27117e-46 7.30173e-46 7.32735e-46 7.34708e-46 7.3599e-46 7.36478e-46 7.36073e-46 7.3469e-46 7.32264e-46 7.28758e-46 7.24168e-46 7.18528e-46 7.11912e-46 7.04434e-46 6.96244e-46 6.87523e-46 6.78477e-46 6.69324e-46 6.60289e-46 6.51588e-46 6.43422e-46 6.35968e-46 6.29367e-46 6.23725e-46 6.19106e-46 6.15532e-46 6.12987e-46 6.11421e-46 6.10756e-46 6.10893e-46 6.11721e-46 6.13124e-46 6.14988e-46 6.17206e-46 6.19684e-46 6.22342e-46 6.25115e-46 6.27956e-46 6.30832e-46 6.33726e-46 6.36634e-46 6.39565e-46 6.42541e-46 6.45594e-46 6.48767e-46 6.5211e-46 6.55677e-46 6.59524e-46 6.63698e-46 6.68234e-46 6.73144e-46 6.78409e-46 6.83974e-46 6.89736e-46 6.95541e-46 7.01185e-46 7.06409e-46 7.10909e-46 7.14341e-46 7.1633e-46 7.16488e-46 7.14429e-46 7.09783e-46 7.02218e-46 6.91456e-46 6.7729e-46 6.59601e-46 6.38365e-46 6.13664e-46 5.8569e-46 5.54741e-46 5.21214e-46 4.85592e-46 4.48428e-46 4.10322e-46 3.71896e-46 3.33768e-46 2.96529e-46 2.60718e-46 2.26801e-46 1.9516e-46 1.66078e-46 1.39744e-46 1.16244e-46 9.55794e-47 7.76697e-47 6.23709e-47 4.94891e-47 3.87968e-47 3.00476e-47 2.29892e-47 1.73747e-47 1.2971e-47 9.5649e-48 6.96679e-48 5.01218e-48 3.56174e-48 2.50002e-48 1.73332e-48 1.18707e-48 8.03068e-49 5.36684e-49 3.54318e-49 2.31098e-49 1.48919e-49 9.48144e-50 5.96481e-50 3.70801e-50 2.27791e-50 1.38296e-50 8.29826e-51 4.92156e-51 2.88527e-51 1.67212e-51 9.5803e-52 5.42692e-52 3.03965e-52 1.68353e-52 9.22104e-53 4.99494e-53 2.67606e-53 1.41798e-53 7.42888e-54 3.84251e-54 1.94984e-54 9.44563e-55 3.81284e-55 0 
0 6.42137e-72 2.12248e-71 6.33884e-71 1.86033e-70 5.41143e-70 1.56159e-69 4.47072e-69 1.26977e-68 3.57761e-68 9.99895e-68 2.77197e-67 7.62205e-67 2.07865e-66 5.62205e-66 1.50795e-65 4.01083e-65 1.05782e-64 2.76629e-64 7.17238e-64 1.84368e-63 4.69826e-63 1.18684e-62 2.97186e-62 7.3759e-62 1.81437e-61 4.42318e-61 1.06859e-60 2.55819e-60 6.06827e-60 1.42621e-59 3.3209e-59 7.66045e-59 1.75045e-58 3.96196e-58 8.88188e-58 1.97199e-57 4.33587e-57 9.44036e-57 2.03521e-56 4.34415e-56 9.18003e-56 1.9204e-55 3.97662e-55 8.15039e-55 1.65329e-54 3.31887e-54 6.59277e-54 1.29582e-53 2.51992e-53 4.84794e-53 9.2261e-53 1.73674e-52 3.23345e-52 5.95359e-52 1.08401e-51 1.95161e-51 3.47392e-51 6.1133e-51 1.06346e-50 1.82861e-50 3.10769e-50 5.21954e-50 8.66298e-50 1.42071e-49 2.30204e-49 3.68513e-49 5.82757e-49 9.10298e-49 1.40445e-48 2.14006e-48 3.22039e-48 4.78545e-48 7.02167e-48 1.01726e-47 1.45504e-47 2.05468e-47 2.86428e-47 3.94159e-47 5.35421e-47 7.17915e-47 9.50153e-47 1.24122e-46 1.60045e-46 2.03689e-46 2.5588e-46 3.17293e-46 3.88382e-46 4.69308e-46 5.59876e-46 6.59486e-46 7.67101e-46 8.81251e-46 1.00006e-45 1.12132e-45 1.24257e-45 1.36123e-45 1.47476e-45 1.58076e-45 1.67716e-45 1.76233e-45 1.83513e-45 1.89506e-45 1.94216e-45 1.97708e-45 2.00092e-45 2.0152e-45 2.0217e-45 2.02231e-45 2.01892e-45 2.01332e-45 2.00705e-45 2.00138e-45 1.99727e-45 1.99534e-45 1.99591e-45 1.99905e-45 2.0046e-45 2.01229e-45 2.02172e-45 2.0325e-45 2.0442e-45 2.05647e-45 2.06897e-45 2.08141e-45 2.09357e-45 2.10521e-45 2.11615e-45 2.12616e-45 2.13501e-45 2.14245e-45 2.1482e-45 2.15194e-45 2.15339e-45 2.15225e-45 2.14827e-45 2.14126e-45 2.13111e-45 2.1178e-45 2.10144e-45 2.08224e-45 2.06053e-45 2.03675e-45 2.01142e-45 1.98514e-45 1.95855e-45 1.9323e-45 1.90703e-45 1.88331e-45 1.86166e-45 1.8425e-45 1.82613e-45 1.81273e-45 1.80237e-45 1.79501e-45 1.79048e-45 1.78857e-45 1.78898e-45 1.7914e-45 1.79548e-45 1.80089e-45 1.80732e-45 1.8145e-45 1.82219e-45 1.83022e-45 1.83844e-45 1.84675e-45 1.85512e-45 1.86353e-45 1.87201e-45 1.88062e-45 1.88947e-45 1.89867e-45 1.90838e-45 1.91876e-45 1.92997e-45 1.94216e-45 1.95544e-45 1.96985e-45 1.98534e-45 2.00177e-45 2.01883e-45 2.0361e-45 2.05298e-45 2.06873e-45 2.08246e-45 2.09317e-45 2.09976e-45 2.10109e-45 2.09603e-45 2.08346e-45 2.06241e-45 2.03202e-45 1.99166e-45 1.94094e-45 1.87976e-45 1.80832e-45 1.72715e-45 1.63709e-45 1.53929e-45 1.43515e-45 1.32628e-45 1.21444e-45 1.10148e-45 9.89214e-46 8.79412e-46 7.73681e-46 6.73424e-46 5.79788e-46 4.93643e-46 4.15561e-46 3.45829e-46 2.84461e-46 2.31239e-46 1.85749e-46 1.47424e-46 1.15599e-46 8.95469e-47 6.85219e-47 5.1793e-47 3.86687e-47 2.85158e-47 2.07701e-47 1.49424e-47 1.06177e-47 7.45195e-48 5.16596e-48 3.53739e-48 2.39265e-48 1.59866e-48 1.05519e-48 6.88052e-49 4.43254e-49 2.82128e-49 1.7743e-49 1.10262e-49 6.77115e-50 4.10932e-50 2.46478e-50 1.46122e-50 8.56278e-51 4.96029e-51 2.84069e-51 1.60842e-51 9.00461e-52 4.98488e-52 2.72899e-52 1.47753e-52 7.912e-53 4.19026e-53 2.19418e-53 1.13435e-53 5.75331e-54 2.78587e-54 1.12419e-54 0 
0 1.8358e-71 6.06963e-71 1.81332e-70 5.32364e-70 1.54913e-69 4.47203e-69 1.2808e-68 3.63913e-68 1.02574e-67 2.86796e-67 7.95402e-67 2.18803e-66 5.96965e-66 1.6153e-65 4.33449e-65 1.15341e-64 3.04342e-64 7.96252e-64 2.0655e-63 5.31201e-63 1.35434e-62 3.42297e-62 8.57553e-62 2.12948e-61 5.24102e-61 1.27838e-60 3.09012e-60 7.40178e-60 1.75677e-59 4.13124e-59 9.62512e-59 2.22157e-58 5.07942e-58 1.15037e-57 2.58046e-57 5.73278e-57 1.26127e-56 2.74786e-56 5.92778e-56 1.2661e-55 2.67724e-55 5.60426e-55 1.16125e-54 2.38165e-54 4.83433e-54 9.71109e-54 1.93035e-53 3.79669e-53 7.3882e-53 1.42233e-52 2.70865e-52 5.10222e-52 9.50564e-52 1.75139e-51 3.19098e-51 5.74867e-51 1.02394e-50 1.80306e-50 3.13857e-50 5.40011e-50 9.18302e-50 1.54327e-49 2.5629e-49 4.20554e-49 6.81824e-49 1.09206e-48 1.72787e-48 2.70039e-48 4.16834e-48 6.35453e-48 9.5666e-48 1.42218e-47 2.08757e-47 3.02546e-47 4.32892e-47 6.11478e-47 8.52651e-47 1.17363e-46 1.59457e-46 2.13843e-46 2.83057e-46 3.69803e-46 4.76852e-46 6.06895e-46 7.62373e-46 9.45271e-46 1.15691e-45 1.39772e-45 1.66708e-45 1.96312e-45 2.2827e-45 2.62135e-45 2.97341e-45 3.33223e-45 3.69043e-45 4.04029e-45 4.37416e-45 4.68496e-45 4.96652e-45 5.214e-45 5.42416e-45 5.59551e-45 5.72837e-45 5.82473e-45 5.88804e-45 5.92293e-45 5.93477e-45 5.92932e-45 5.91231e-45 5.88906e-45 5.86425e-45 5.84167e-45 5.82416e-45 5.81358e-45 5.81086e-45 5.81619e-45 5.82908e-45 5.84867e-45 5.87378e-45 5.90317e-45 5.93559e-45 5.96991e-45 6.00513e-45 6.04039e-45 6.07498e-45 6.10822e-45 6.13952e-45 6.16824e-45 6.19368e-45 6.21511e-45 6.23169e-45 6.24255e-45 6.24681e-45 6.24362e-45 6.23226e-45 6.21216e-45 6.18301e-45 6.14475e-45 6.09768e-45 6.0424e-45 5.97987e-45 5.91135e-45 5.83837e-45 5.76264e-45 5.68601e-45 5.61037e-45 5.53754e-45 5.46921e-45 5.40685e-45 5.35168e-45 5.30455e-45 5.266e-45 5.23621e-45 5.21505e-45 5.20208e-45 5.19663e-45 5.19787e-45 5.20486e-45 5.21662e-45 5.2322e-45 5.2507e-45 5.27133e-45 5.29343e-45 5.31646e-45 5.34004e-45 5.3639e-45 5.3879e-45 5.41203e-45 5.43636e-45 5.46109e-45 5.48651e-45 5.51299e-45 5.54097e-45 5.57093e-45 5.60336e-45 5.63869e-45 5.67726e-45 5.71923e-45 5.76448e-45 5.81259e-45 5.86276e-45 5.91375e-45 5.96387e-45 6.011e-45 6.05258e-45 6.0857e-45 6.10719e-45 6.11373e-45 6.10194e-45 6.06861e-45 6.01077e-45 5.92591e-45 5.81206e-45 5.66799e-45 5.4933e-45 5.28846e-45 5.05491e-45 4.79502e-45 4.51203e-45 4.20997e-45 3.89354e-45 3.56785e-45 3.23829e-45 2.91025e-45 2.58893e-45 2.2791e-45 1.98494e-45 1.7099e-45 1.4566e-45 1.22679e-45 1.02138e-45 8.40468e-46 6.83462e-46 5.4918e-46 4.3599e-46 3.4195e-46 2.64936e-46 2.02762e-46 1.53277e-46 1.14445e-46 8.43994e-47 6.14745e-47 4.42244e-47 3.14226e-47 2.20517e-47 1.52851e-47 1.04648e-47 7.07696e-48 4.72749e-48 3.11961e-48 2.03366e-48 1.30974e-48 8.33381e-49 5.23941e-49 3.25481e-49 1.99804e-49 1.21211e-49 7.26735e-50 4.30658e-50 2.52257e-50 1.46063e-50 8.36103e-51 4.73184e-51 2.64782e-51 1.46509e-51 8.01671e-52 4.33823e-52 2.32187e-52 1.22905e-52 6.43244e-53 3.32371e-53 1.68492e-53 8.15511e-54 3.28979e-54 0 
0 5.20654e-71 1.7219e-70 5.14599e-70 1.51133e-69 4.39948e-69 1.27052e-68 3.64021e-68 1.0347e-67 2.91763e-67 8.16105e-67 2.26434e-66 6.23153e-66 1.70091e-65 4.60445e-65 1.23612e-64 3.29084e-64 8.68744e-64 2.274e-63 5.90169e-63 1.51854e-62 3.87361e-62 9.79527e-62 2.45529e-61 6.10026e-61 1.50219e-60 3.66613e-60 8.86682e-60 2.12508e-59 5.04668e-59 1.18748e-58 2.76828e-58 6.39331e-58 1.46266e-57 3.31463e-57 7.43991e-57 1.6539e-56 3.64108e-56 7.93775e-56 1.71348e-55 3.66217e-55 7.74903e-55 1.62319e-54 3.36565e-54 6.90739e-54 1.40303e-53 2.82031e-53 5.60999e-53 1.10415e-52 2.15011e-52 4.14211e-52 7.89356e-52 1.48791e-51 2.77393e-51 5.11437e-51 9.32453e-51 1.68098e-50 2.99612e-50 5.27932e-50 9.19563e-50 1.58318e-49 2.69392e-49 4.53011e-49 7.5277e-49 1.23597e-48 2.00497e-48 3.2131e-48 5.08653e-48 7.9536e-48 1.22833e-47 1.87346e-47 2.82172e-47 4.19658e-47 6.1625e-47 8.9345e-47 1.27881e-46 1.80694e-46 2.52033e-46 3.46996e-46 4.71552e-46 6.32494e-46 8.37323e-46 1.09404e-45 1.41081e-45 1.79558e-45 2.2555e-45 2.79639e-45 3.42203e-45 4.13359e-45 4.92904e-45 5.80269e-45 6.74501e-45 7.74257e-45 8.77842e-45 9.83263e-45 1.08832e-44 1.19072e-44 1.28819e-44 1.37863e-44 1.46023e-44 1.53157e-44 1.59172e-44 1.64027e-44 1.67734e-44 1.70355e-44 1.71997e-44 1.728e-44 1.72927e-44 1.72549e-44 1.7184e-44 1.70957e-44 1.70041e-44 1.69204e-44 1.6853e-44 1.68074e-44 1.67863e-44 1.67902e-44 1.68176e-44 1.68658e-44 1.69312e-44 1.70102e-44 1.70989e-44 1.71938e-44 1.72921e-44 1.73911e-44 1.74886e-44 1.75827e-44 1.76715e-44 1.77532e-44 1.78257e-44 1.78869e-44 1.79344e-44 1.79657e-44 1.79781e-44 1.79693e-44 1.79371e-44 1.788e-44 1.77969e-44 1.76878e-44 1.75535e-44 1.73956e-44 1.7217e-44 1.70211e-44 1.68125e-44 1.65961e-44 1.6377e-44 1.61608e-44 1.59526e-44 1.57573e-44 1.55791e-44 1.54215e-44 1.52869e-44 1.51769e-44 1.5092e-44 1.50317e-44 1.49948e-44 1.49794e-44 1.49831e-44 1.50031e-44 1.50368e-44 1.50813e-44 1.51341e-44 1.51929e-44 1.52558e-44 1.53214e-44 1.53885e-44 1.54564e-44 1.55246e-44 1.55933e-44 1.56625e-44 1.5733e-44 1.58054e-44 1.5881e-44 1.5961e-44 1.60468e-44 1.61399e-44 1.62415e-44 1.63527e-44 1.6474e-44 1.66051e-44 1.6745e-44 1.68915e-44 1.70409e-44 1.71887e-44 1.73287e-44 1.74536e-44 1.75552e-44 1.76242e-44 1.7651e-44 1.76259e-44 1.75394e-44 1.73828e-44 1.71485e-44 1.68307e-44 1.64254e-44 1.59311e-44 1.53489e-44 1.46826e-44 1.39388e-44 1.31266e-44 1.22575e-44 1.1345e-44 1.04039e-44 9.44988e-45 8.49865e-45 7.56546e-45 6.66437e-45 5.80776e-45 5.00588e-45 4.26658e-45 3.5952e-45 2.99456e-45 2.46515e-45 2.00537e-45 1.61188e-45 1.28001e-45 1.00416e-45 7.78153e-46 5.95629e-46 4.50315e-46 3.36256e-46 2.47986e-46 1.80627e-46 1.29938e-46 9.23181e-47 6.47802e-47 4.48963e-47 3.0733e-47 2.07796e-47 1.3878e-47 9.15565e-48 5.96691e-48 3.84174e-48 2.44371e-48 1.53582e-48 9.53739e-49 5.85252e-49 3.54905e-49 2.12699e-49 1.2599e-49 7.37657e-50 4.26928e-50 2.44269e-50 1.38176e-50 7.72815e-51 4.27401e-51 2.33747e-51 1.26426e-51 6.76297e-52 3.57798e-52 1.87161e-52 9.66569e-53 4.89743e-53 2.36931e-53 9.55467e-54 0 
0 1.46479e-70 4.84572e-70 1.44867e-69 4.2562e-69 1.23945e-68 3.58078e-68 1.02635e-67 2.91849e-67 8.23288e-67 2.30383e-66 6.39489e-66 1.76066e-65 4.80791e-65 1.30212e-64 3.49733e-64 9.31511e-64 2.46026e-63 6.44308e-63 1.67301e-62 4.30695e-62 1.09922e-61 2.78108e-61 6.97482e-61 1.73387e-60 4.27203e-60 1.04319e-59 2.52447e-59 6.05385e-59 1.43853e-58 3.38687e-58 7.90034e-58 1.8257e-57 4.17945e-57 9.4773e-57 2.1286e-56 4.73498e-56 1.04309e-55 2.2755e-55 4.91527e-55 1.05124e-54 2.22589e-54 4.66576e-54 9.68105e-54 1.98824e-53 4.04133e-53 8.12936e-53 1.61818e-52 3.18713e-52 6.21065e-52 1.1973e-51 2.28328e-51 4.30693e-51 8.03509e-51 1.48248e-50 2.70473e-50 4.8793e-50 8.7026e-50 1.53448e-49 2.67456e-49 4.60771e-49 7.84548e-49 1.32013e-48 2.19502e-48 3.60616e-48 5.85329e-48 9.38564e-48 1.48662e-47 2.32581e-47 3.59375e-47 5.48386e-47 8.26339e-47 1.2295e-46 1.80622e-46 2.61969e-46 3.75094e-46 5.30171e-46 7.39696e-46 1.01866e-45 1.38462e-45 1.85753e-45 2.45943e-45 3.21378e-45 4.14456e-45 5.27497e-45 6.6259e-45 8.21418e-45 1.00507e-44 1.21384e-44 1.44708e-44 1.70308e-44 1.97896e-44 2.27072e-44 2.57331e-44 2.88081e-44 3.18671e-44 3.48421e-44 3.76666e-44 4.02786e-44 4.26253e-44 4.46653e-44 4.63721e-44 4.77344e-44 4.87569e-44 4.9459e-44 4.9873e-44 5.00411e-44 5.0012e-44 4.98373e-44 4.95679e-44 4.92512e-44 4.89284e-44 4.86328e-44 4.83891e-44 4.82132e-44 4.81131e-44 4.80897e-44 4.81387e-44 4.82516e-44 4.84181e-44 4.86267e-44 4.88661e-44 4.91261e-44 4.93976e-44 4.96728e-44 4.99453e-44 5.02092e-44 5.0459e-44 5.06894e-44 5.08944e-44 5.10678e-44 5.12027e-44 5.12918e-44 5.13277e-44 5.13036e-44 5.12134e-44 5.10523e-44 5.08176e-44 5.0509e-44 5.01286e-44 4.96814e-44 4.91752e-44 4.86202e-44 4.80287e-44 4.74149e-44 4.67937e-44 4.61806e-44 4.55903e-44 4.50367e-44 4.45317e-44 4.40851e-44 4.37039e-44 4.33925e-44 4.31522e-44 4.29819e-44 4.28779e-44 4.28347e-44 4.28456e-44 4.29027e-44 4.29982e-44 4.31243e-44 4.32736e-44 4.34399e-44 4.36177e-44 4.38029e-44 4.39922e-44 4.41838e-44 4.43764e-44 4.45701e-44 4.47656e-44 4.49646e-44 4.51695e-44 4.53835e-44 4.56103e-44 4.5854e-44 4.6119e-44 4.6409e-44 4.67271e-44 4.7075e-44 4.74523e-44 4.78561e-44 4.82803e-44 4.87152e-44 4.91476e-44 4.95604e-44 4.99329e-44 5.02415e-44 5.046e-44 5.05608e-44 5.05156e-44 5.0297e-44 4.98794e-44 4.92405e-44 4.83626e-44 4.72335e-44 4.5848e-44 4.42079e-44 4.23234e-44 4.02123e-44 3.79002e-44 3.54198e-44 3.28093e-44 3.01112e-44 2.73708e-44 2.46336e-44 2.19441e-44 1.93432e-44 1.68675e-44 1.45471e-44 1.24054e-44 1.04585e-44 8.71525e-45 7.17743e-45 5.84089e-45 4.69633e-45 3.73046e-45 2.92721e-45 2.26882e-45 1.73692e-45 1.31331e-45 9.80741e-46 7.23316e-46 5.26846e-46 3.78983e-46 2.69241e-46 1.88908e-46 1.30906e-46 8.95945e-47 6.0566e-47 4.04408e-47 2.66732e-47 1.73786e-47 1.11857e-47 7.11285e-48 4.46874e-48 2.77405e-48 1.70161e-48 1.03146e-48 6.17908e-49 3.65851e-49 2.14105e-49 1.23858e-49 7.08322e-50 4.0048e-50 2.23876e-50 1.2375e-50 6.76442e-51 3.65674e-51 1.95506e-51 1.03378e-51 5.40466e-52 2.78967e-52 1.41274e-52 6.83146e-53 2.75398e-53 0 