# vtk DataFile Version 3.0
Gray-Scott Simulation Output
ASCII
DATASET STRUCTURED_POINTS
DIMENSIONS 256 256 1
SPACING 1.0 1.0 1.0
ORIGIN 0 0 0
POINT_DATA 65536
SCALARS u double
LOOKUP_TABLE default
0 0 0 0 0 0 0 0 0 0 0 0 0 0 0 0 0 0 0 0 0 0 0 0 0 0 0 0 0 0 0 0 0 0 0 0 0 0 0 0 0 0 0 0 0 0 0 0 0 0 0 0 0 0 0 0 0 0 0 0 0 0 0 0 0 0 0 0 0 0 0 0 0 0 0 0 0 0 0 0 0 0 0 0 0 0 0 0 0 0 0 0 0 0 0 0 0 0 0 0 0 0 0 0 0 0 0 0 0 0 0 0 0 0 0 0 0 0 0 0 0 0 0 0 0 0 0 0 0 0 0 0 0 0 0 0 0 0 0 0 0 0 0 0 0 0 0 0 0 0 0 0 0 0 0 0 0 0 0 0 0 0 0 0 0 0 0 0 0 0 0 0 0 0 0 0 0 0 0 0 0 0 0 0 0 0 0 0 0 0 0 0 0 0 0 0 0 0 0 0 0 0 0 0 0 0 0 0 0 0 0 0 0 0 0 0 0 0 0 0 0 0 0 0 0 0 0 0 0 0 0 0 0 0 0 0 0 0 0 0 0 0 0 0 0 0 0 0 0 0 0 0 0 0 0 0 
0 3.57034e-141 3.99463e-140 4.38885e-139 4.77133e-138 5.13247e-137 5.4622e-136 5.75066e-135 5.9887e-134 6.16828e-133 6.28297e-132 6.3283e-131 6.30203e-130 6.20432e-129 6.03777e-128 5.8073e-127 5.51994e-126 5.18443e-125 4.81081e-124 4.40989e-123 3.99274e-122 3.57015e-121 3.1522e-120 2.74783e-119 2.36456e-118 2.00829e-117 1.68327e-116 1.39206e-115 1.13573e-114 9.13957e-114 7.25335e-113 5.67591e-112 4.37863e-111 3.32941e-110 2.49481e-109 1.8419e-108 1.33957e-107 9.59494e-107 6.7672e-106 4.69861e-105 3.21089e-104 2.15913e-103 1.42831e-102 9.29297e-102 5.94516e-101 3.73885e-100 2.31079e-99 1.40318e-98 8.36898e-98 4.9013e-97 2.81772e-96 1.58963e-95 8.79772e-95 4.77499e-94 2.5407e-93 1.32483e-92 6.76761e-92 3.38541e-91 1.65774e-90 7.94287e-90 3.72229e-89 1.70539e-88 7.63526e-88 3.33892e-87 1.42548e-86 5.93836e-86 2.41268e-85 9.55481e-85 3.68631e-84 1.3847e-83 5.06113e-83 1.79886e-82 6.21333e-82 2.08416e-81 6.78447e-81 2.14173e-80 6.55161e-80 1.94058e-79 5.5612e-79 1.54063e-78 4.12242e-78 1.06452e-77 2.65039e-77 6.35672e-77 1.46731e-76 3.25664e-76 6.94351e-76 1.42085e-75 2.78799e-75 5.2412e-75 9.4323e-75 1.6238e-74 2.67238e-74 4.20238e-74 6.31212e-74 9.0548e-74 1.24067e-73 1.62437e-73 2.03378e-73 2.43801e-73 2.80291e-73 3.09741e-73 3.29959e-73 3.40075e-73 3.40656e-73 3.33534e-73 3.21439e-73 3.0755e-73 2.95066e-73 2.86839e-73 2.85059e-73 2.91003e-73 3.04844e-73 3.25593e-73 3.51201e-73 3.78868e-73 4.05518e-73 4.28352e-73 4.45353e-73 4.55619e-73 4.59439e-73 4.58127e-73 4.5366e-73 4.48246e-73 4.43902e-73 4.42137e-73 4.43781e-73 4.48953e-73 4.57178e-73 4.67595e-73 4.79199e-73 4.9106e-73 5.02421e-73 5.12687e-73 5.21303e-73 5.27623e-73 5.30856e-73 5.30145e-73 5.24763e-73 5.14362e-73 4.99141e-73 4.79874e-73 4.57762e-73 4.3417e-73 4.10346e-73 3.87225e-73 3.65374e-73 3.45088e-73 3.26589e-73 3.10225e-73 2.96594e-73 2.865e-73 2.8076e-73 2.79898e-73 2.83868e-73 2.91923e-73 3.02691e-73 3.14451e-73 3.25515e-73 3.34569e-73 3.40889e-73 3.44382e-73 3.45493e-73 3.45048e-73 3.44082e-73 3.4369e-73 3.44872e-73 3.48358e-73 3.54433e-73 3.62787e-73 3.72487e-73 3.82098e-73 3.89968e-73 3.94617e-73 3.95119e-73 3.91398e-73 3.84326e-73 3.75633e-73 3.67615e-73 3.62735e-73 3.63163e-73 3.70379e-73 3.84877e-73 4.06033e-73 4.32156e-73 4.6071e-73 4.88682e-73 5.13032e-73 5.31139e-73 5.41143e-73 5.42108e-73 5.33961e-73 5.17272e-73 4.92949e-73 4.61996e-73 4.25401e-73 3.84179e-73 3.39492e-73 2.92767e-73 2.45704e-73 2.00149e-73 1.57878e-73 1.20348e-73 8.8508e-74 6.27138e-74 4.27684e-74 2.8049e-74 1.76808e-74 1.07081e-74 6.22985e-75 3.48165e-75 1.86935e-75 9.64502e-76 4.78389e-76 2.28204e-76 1.04751e-76 4.62966e-77 1.97137e-77 8.09311e-78 3.20548e-78 1.22578e-78 4.52892e-79 1.6179e-79 5.59246e-80 1.8718e-80 6.07055e-81 1.90903e-81 5.82518e-82 1.72586e-82 4.96804e-83 1.39033e-83 3.78505e-84 1.00301e-84 2.58858e-85 6.51013e-86 1.59631e-86 3.81835e-87 8.91414e-88 2.03208e-88 4.52548e-89 9.85026e-90 2.09644e-90 4.36466e-91 8.89267e-92 1.77378e-92 3.46515e-93 6.63221e-94 1.24413e-94 2.2882e-95 4.12756e-96 7.30471e-97 1.26871e-97 2.16319e-98 3.61965e-99 5.80428e-100 0 
0 3.99526e-140 4.46821e-139 4.90711e-138 5.33253e-137 5.73376e-136 6.09958e-135 6.41906e-134 6.682e-133 6.87954e-132 7.00458e-131 7.05222e-130 7.02008e-129 6.90842e-128 6.72024e-127 6.46111e-126 6.13892e-125 5.76347e-124 5.34598e-123 4.8985e-122 4.43336e-121 3.96257e-120 3.4973e-119 3.04746e-118 2.62136e-117 2.22553e-116 1.86462e-115 1.54145e-114 1.25712e-113 1.01126e-112 8.02248e-112 6.27539e-111 4.83926e-110 3.67827e-109 2.75519e-108 2.03338e-107 1.47827e-106 1.05846e-105 7.46244e-105 5.17944e-104 3.5382e-103 2.37836e-102 1.57278e-101 1.02293e-100 6.54186e-100 4.11267e-99 2.54095e-98 1.54241e-97 9.19622e-97 5.38395e-96 3.09415e-95 1.745e-94 9.65442e-94 5.23825e-93 2.7863e-92 1.45243e-91 7.41708e-91 3.70913e-90 1.8157e-89 8.69706e-89 4.07449e-88 1.8662e-87 8.35278e-87 3.65164e-86 1.55854e-85 6.49087e-85 2.63643e-84 1.04381e-83 4.02601e-83 1.5119e-82 5.52467e-82 1.96313e-81 6.77903e-81 2.27337e-80 7.39868e-80 2.33508e-79 7.14152e-79 2.11486e-78 6.05936e-78 1.6783e-77 4.48992e-77 1.1592e-76 2.8856e-76 6.91966e-76 1.59699e-75 3.54391e-75 7.55489e-75 1.54575e-74 3.03267e-74 5.7005e-74 1.02578e-73 1.76573e-73 2.90573e-73 4.569e-73 6.8624e-73 9.84374e-73 1.34873e-72 1.76583e-72 2.2109e-72 2.6504e-72 3.04721e-72 3.3676e-72 3.58773e-72 3.69812e-72 3.70491e-72 3.628e-72 3.497e-72 3.34643e-72 3.21104e-72 3.1218e-72 3.10249e-72 3.16697e-72 3.31715e-72 3.54229e-72 3.82018e-72 4.12044e-72 4.40969e-72 4.65755e-72 4.84216e-72 4.95371e-72 4.99534e-72 4.98127e-72 4.93298e-72 4.87438e-72 4.82736e-72 4.8083e-72 4.82617e-72 4.88229e-72 4.9715e-72 5.08446e-72 5.2103e-72 5.3389e-72 5.46209e-72 5.5734e-72 5.66682e-72 5.73534e-72 5.77039e-72 5.76266e-72 5.70429e-72 5.59146e-72 5.42633e-72 5.21729e-72 4.97733e-72 4.72125e-72 4.46259e-72 4.2115e-72 3.97414e-72 3.75373e-72 3.55267e-72 3.37477e-72 3.22654e-72 3.11675e-72 3.05427e-72 3.04482e-72 3.08791e-72 3.17544e-72 3.2925e-72 3.42039e-72 3.54075e-72 3.63929e-72 3.70813e-72 3.74622e-72 3.75842e-72 3.75366e-72 3.74322e-72 3.73898e-72 3.75179e-72 3.78962e-72 3.85553e-72 3.9462e-72 4.05149e-72 4.15583e-72 4.2413e-72 4.29183e-72 4.29738e-72 4.2571e-72 4.18046e-72 4.08621e-72 3.99929e-72 3.94637e-72 3.95103e-72 4.02932e-72 4.18658e-72 4.41606e-72 4.6994e-72 5.00911e-72 5.3125e-72 5.5766e-72 5.77298e-72 5.88148e-72 5.89191e-72 5.80348e-72 5.62232e-72 5.35826e-72 5.02215e-72 4.6247e-72 4.1769e-72 3.69137e-72 3.18361e-72 2.67208e-72 2.17688e-72 1.7173e-72 1.30922e-72 9.62944e-73 6.82385e-73 4.65414e-73 3.0527e-73 1.9245e-73 1.16569e-73 6.78263e-74 3.79104e-74 2.03572e-74 1.05048e-74 5.21106e-75 2.48615e-75 1.14137e-75 5.04524e-76 2.14867e-76 8.82239e-77 3.49491e-77 1.3367e-77 4.93961e-78 1.76495e-78 6.10191e-79 2.04272e-79 6.62622e-80 2.08422e-80 6.36112e-81 1.88507e-81 5.42757e-82 1.51929e-82 4.13713e-83 1.09657e-83 2.83077e-84 7.12104e-85 1.74657e-85 4.17887e-86 9.75843e-87 2.22516e-87 4.95686e-88 1.07923e-88 2.29759e-89 4.78485e-90 9.75167e-91 1.94571e-91 3.80217e-92 7.27951e-93 1.36598e-93 2.51311e-94 4.5347e-95 8.02784e-96 1.39476e-96 2.37889e-97 3.9819e-98 6.3872e-99 0 
0 4.39026e-139 4.90791e-138 5.38771e-137 5.85233e-136 6.29002e-135 6.68852e-134 7.03589e-133 7.32104e-132 7.53432e-131 7.66807e-130 7.71703e-129 7.67867e-128 7.55342e-127 7.34465e-126 7.05856e-125 6.70383e-124 6.29127e-123 5.83318e-122 5.34276e-121 4.83349e-120 4.31847e-119 3.80989e-118 3.31852e-117 2.85339e-116 2.42156e-115 2.02807e-114 1.67591e-113 1.36624e-112 1.09861e-111 8.7121e-111 6.81221e-110 5.25122e-109 3.98988e-108 2.98746e-107 2.20397e-106 1.60169e-105 1.1464e-104 8.07947e-104 5.60564e-103 3.82794e-102 2.57219e-101 1.70034e-100 1.1055e-99 7.0674e-99 4.44148e-98 2.74314e-97 1.66456e-96 9.92113e-96 5.80636e-95 3.33578e-94 1.88065e-93 1.04014e-92 5.6417e-92 2.99992e-91 1.56329e-90 7.98062e-90 3.98969e-89 1.95243e-88 9.34912e-88 4.37865e-87 2.00491e-86 8.97098e-86 3.92076e-85 1.67293e-84 6.96529e-84 2.82834e-83 1.11949e-82 4.31676e-82 1.62067e-81 5.92058e-81 2.10328e-80 7.26124e-80 2.4345e-79 7.92122e-79 2.49943e-78 7.64248e-78 2.26272e-77 6.48167e-77 1.79491e-76 4.80095e-76 1.23927e-75 3.08438e-75 7.39505e-75 1.70642e-74 3.78618e-74 8.07019e-74 1.65095e-73 3.23867e-73 6.08702e-73 1.09521e-72 1.88508e-72 3.10187e-72 4.87707e-72 7.3247e-72 1.05064e-71 1.43949e-71 1.88463e-71 2.35967e-71 2.82881e-71 3.25248e-71 3.59469e-71 3.83e-71 3.94828e-71 3.95606e-71 3.87453e-71 3.73525e-71 3.57501e-71 3.43087e-71 3.33582e-71 3.31525e-71 3.38392e-71 3.54389e-71 3.78372e-71 4.07977e-71 4.39967e-71 4.70786e-71 4.97201e-71 5.16881e-71 5.28781e-71 5.33234e-71 5.31755e-71 5.26629e-71 5.20403e-71 5.15407e-71 5.13386e-71 5.15294e-71 5.21272e-71 5.30771e-71 5.42796e-71 5.56192e-71 5.69881e-71 5.82994e-71 5.94842e-71 6.04785e-71 6.12079e-71 6.15809e-71 6.14985e-71 6.08769e-71 5.96753e-71 5.79167e-71 5.569e-71 5.31336e-71 5.04048e-71 4.7648e-71 4.4971e-71 4.24397e-71 4.00884e-71 3.7943e-71 3.60444e-71 3.44619e-71 3.32894e-71 3.26218e-71 3.252e-71 3.29792e-71 3.3913e-71 3.51624e-71 3.65279e-71 3.78134e-71 3.88663e-71 3.96023e-71 4.00103e-71 4.01417e-71 4.00919e-71 3.99811e-71 3.99359e-71 4.00724e-71 4.04752e-71 4.11774e-71 4.21434e-71 4.32653e-71 4.43775e-71 4.52888e-71 4.5828e-71 4.58882e-71 4.54602e-71 4.46448e-71 4.36417e-71 4.27165e-71 4.21533e-71 4.22031e-71 4.30368e-71 4.47115e-71 4.71551e-71 5.01721e-71 5.34698e-71 5.67002e-71 5.95123e-71 6.16033e-71 6.27585e-71 6.28692e-71 6.19268e-71 5.99962e-71 5.71818e-71 5.35989e-71 4.93611e-71 4.45853e-71 3.94062e-71 3.3989e-71 2.85305e-71 2.32454e-71 1.83399e-71 1.39833e-71 1.0286e-71 7.28995e-72 4.97261e-72 3.26197e-72 2.05667e-72 1.24589e-72 7.2502e-73 4.05289e-73 2.17661e-73 1.12333e-73 5.57316e-74 2.65928e-74 1.22103e-74 5.39814e-75 2.29932e-75 9.44246e-76 3.74117e-76 1.43113e-76 5.28952e-77 1.89032e-77 6.53662e-78 2.18868e-78 7.10115e-79 2.23407e-79 6.81996e-80 2.02149e-80 5.82169e-81 1.63e-81 4.43965e-82 1.17705e-82 3.03928e-83 7.6475e-84 1.87619e-84 4.49019e-85 1.04883e-85 2.39224e-86 5.33055e-87 1.16092e-87 2.47222e-88 5.15005e-89 1.04991e-89 2.09548e-90 4.09609e-91 7.84467e-92 1.47249e-92 2.70993e-93 4.89143e-94 8.66216e-95 1.50546e-95 2.56855e-96 4.3008e-97 6.90095e-98 0 
0 4.77365e-138 5.33428e-137 5.8533e-136 6.35538e-135 6.82782e-134 7.25735e-133 7.63107e-132 7.93702e-131 8.16486e-130 8.30635e-129 8.35593e-128 8.31097e-127 8.17204e-126 7.94292e-125 7.6304e-124 7.24399e-123 6.79542e-122 6.29807e-121 5.76624e-120 5.2145e-119 4.65703e-118 4.10693e-117 3.57583e-116 3.07342e-115 2.60727e-114 2.18274e-113 1.80302e-112 1.4693e-111 1.18102e-110 9.36201e-110 7.31758e-109 5.63864e-108 4.28261e-107 3.20544e-106 2.36389e-105 1.71728e-104 1.22867e-103 8.6561e-103 6.00351e-102 4.09815e-101 2.75276e-100 1.81905e-99 1.18226e-98 7.55546e-98 4.74654e-97 2.93053e-96 1.77766e-95 1.05916e-94 6.19664e-94 3.5588e-93 2.00571e-92 1.10895e-91 6.01294e-91 3.19629e-90 1.66508e-89 8.49762e-89 4.24683e-88 2.07763e-87 9.9456e-87 4.65662e-86 2.13156e-85 9.53488e-85 4.16602e-84 1.77707e-83 7.39686e-83 3.00277e-82 1.18821e-81 4.58055e-81 1.71926e-80 6.27918e-80 2.23012e-79 7.69728e-79 2.58009e-78 8.393e-78 2.64771e-77 8.09411e-77 2.39594e-76 6.86188e-76 1.89982e-75 5.08061e-75 1.31122e-74 3.26289e-74 7.82175e-74 1.8046e-73 4.00342e-73 8.53202e-73 1.7452e-72 3.42314e-72 6.433e-72 1.15735e-71 1.99184e-71 3.27729e-71 5.15254e-71 7.73799e-71 1.10988e-70 1.52061e-70 1.99083e-70 2.49265e-70 2.98831e-70 3.43603e-70 3.7978e-70 4.04677e-70 4.17222e-70 4.18101e-70 4.09547e-70 3.94891e-70 3.78014e-70 3.62825e-70 3.52807e-70 3.50637e-70 3.57876e-70 3.74739e-70 4.00025e-70 4.31239e-70 4.64971e-70 4.97472e-70 5.25333e-70 5.46097e-70 5.5866e-70 5.63375e-70 5.61836e-70 5.56452e-70 5.49906e-70 5.44653e-70 5.42531e-70 5.44547e-70 5.50849e-70 5.6086e-70 5.7353e-70 5.87643e-70 6.02065e-70 6.15879e-70 6.2836e-70 6.38835e-70 6.46518e-70 6.50447e-70 6.49578e-70 6.43026e-70 6.30363e-70 6.11826e-70 5.88352e-70 5.61397e-70 5.32619e-70 5.03537e-70 4.7529e-70 4.48573e-70 4.23748e-70 4.01092e-70 3.81035e-70 3.64314e-70 3.51921e-70 3.44859e-70 3.43775e-70 3.48619e-70 3.58479e-70 3.71677e-70 3.86106e-70 3.99696e-70 4.10831e-70 4.18621e-70 4.22945e-70 4.24346e-70 4.2383e-70 4.22665e-70 4.2219e-70 4.23628e-70 4.27874e-70 4.35277e-70 4.45463e-70 4.57296e-70 4.69028e-70 4.78644e-70 4.84339e-70 4.84985e-70 4.80484e-70 4.71899e-70 4.61333e-70 4.51586e-70 4.45653e-70 4.4618e-70 4.54968e-70 4.72618e-70 4.9837e-70 5.30165e-70 5.64917e-70 5.9896e-70 6.28594e-70 6.50629e-70 6.62801e-70 6.63964e-70 6.54024e-70 6.33662e-70 6.03974e-70 5.66171e-70 5.2145e-70 4.7104e-70 4.16362e-70 3.59158e-70 3.0151e-70 2.45683e-70 1.93856e-70 1.47822e-70 1.08749e-70 7.70823e-71 5.25854e-71 3.44993e-71 2.17544e-71 1.318e-71 7.67072e-72 4.28848e-72 2.30342e-72 1.18892e-72 5.89937e-73 2.81532e-73 1.29285e-73 5.71651e-74 2.43529e-74 1.00024e-74 3.96368e-75 1.5165e-75 5.60603e-76 2.0038e-76 6.9303e-77 2.32094e-77 7.53178e-78 2.37004e-78 7.23656e-79 2.14544e-79 6.18005e-80 1.73073e-80 4.71513e-81 1.25038e-81 3.22944e-82 8.12804e-83 1.99459e-83 4.77481e-84 1.11561e-84 2.54525e-85 5.67308e-86 1.23587e-86 2.63258e-87 5.48569e-88 1.11866e-88 2.23337e-89 4.36696e-90 8.36599e-91 1.57084e-91 2.89183e-92 5.22142e-93 9.24952e-94 1.60806e-94 2.74451e-95 4.59696e-96 7.3785e-97 0 
0 5.13583e-137 5.73661e-136 6.29212e-135 6.82897e-134 7.33354e-133 7.79162e-132 8.18943e-131 8.51423e-130 8.755e-129 8.90304e-128 8.95248e-127 8.90065e-126 8.74828e-125 8.49952e-124 8.16177e-123 7.74531e-122 7.26276e-121 6.72849e-120 6.15784e-119 5.56641e-118 4.96933e-117 4.3806e-116 3.8126e-115 3.27563e-114 2.77772e-113 2.32453e-112 1.9194e-111 1.56353e-110 1.25628e-109 9.95478e-109 7.77793e-108 5.99109e-107 4.54859e-106 3.40325e-105 2.50883e-104 1.82189e-103 1.30304e-102 9.17667e-102 6.36224e-101 4.34145e-100 2.91514e-99 1.92567e-98 1.25111e-97 7.99266e-97 5.01945e-96 3.09796e-95 1.87858e-94 1.11891e-93 6.544e-93 3.75704e-92 2.11674e-91 1.16995e-90 6.34166e-90 3.36996e-89 1.755e-88 8.9537e-88 4.47338e-87 2.1878e-86 1.04698e-85 4.90061e-85 2.24259e-84 1.00287e-83 4.38054e-83 1.86806e-82 7.77345e-82 3.1548e-81 1.24804e-80 4.80995e-80 1.80491e-79 6.59036e-79 2.34008e-78 8.07488e-78 2.70604e-77 8.80074e-77 2.77574e-76 8.48369e-76 2.51075e-75 7.18926e-75 1.99008e-74 5.32101e-74 1.37302e-73 3.4161e-73 8.1877e-73 1.88874e-72 4.18948e-72 8.92733e-72 1.82583e-71 3.58086e-71 6.72868e-71 1.21042e-70 2.08301e-70 3.42703e-70 5.38762e-70 8.09063e-70 1.16042e-69 1.58981e-69 2.08141e-69 2.6061e-69 3.1244e-69 3.59268e-69 3.97123e-69 4.23195e-69 4.36364e-69 4.37343e-69 4.28463e-69 4.132e-69 3.95607e-69 3.79767e-69 3.69316e-69 3.67051e-69 3.74602e-69 3.92196e-69 4.1858e-69 4.51152e-69 4.86354e-69 5.20275e-69 5.49359e-69 5.7104e-69 5.84168e-69 5.89108e-69 5.87524e-69 5.81926e-69 5.75114e-69 5.69648e-69 5.67444e-69 5.69552e-69 5.76128e-69 5.86568e-69 5.9978e-69 6.14495e-69 6.29532e-69 6.43935e-69 6.56948e-69 6.67869e-69 6.75879e-69 6.79975e-69 6.79068e-69 6.72234e-69 6.59025e-69 6.39688e-69 6.15196e-69 5.87068e-69 5.57031e-69 5.26669e-69 4.97171e-69 4.69261e-69 4.43322e-69 4.19641e-69 3.98673e-69 3.81187e-69 3.68223e-69 3.6083e-69 3.59687e-69 3.64744e-69 3.75048e-69 3.88846e-69 4.03938e-69 4.18155e-69 4.29811e-69 4.3797e-69 4.42506e-69 4.43985e-69 4.43456e-69 4.42244e-69 4.41749e-69 4.43248e-69 4.47677e-69 4.55401e-69 4.66032e-69 4.78383e-69 4.90631e-69 5.00675e-69 5.06628e-69 5.07314e-69 5.02629e-69 4.93683e-69 4.82668e-69 4.72506e-69 4.6632e-69 4.66872e-69 4.76039e-69 4.94448e-69 5.21308e-69 5.5447e-69 5.90715e-69 6.2622e-69 6.57127e-69 6.80108e-69 6.92801e-69 6.9401e-69 6.83634e-69 6.6238e-69 6.31385e-69 5.91912e-69 5.45203e-69 4.92542e-69 4.35408e-69 3.75625e-69 3.15366e-69 2.57e-69 2.02809e-69 1.54666e-69 1.13797e-69 8.06697e-70 5.5039e-70 3.61133e-70 2.27748e-70 1.37998e-70 8.03241e-71 4.49123e-71 2.41261e-71 1.24544e-71 6.18059e-72 2.94991e-72 1.35484e-72 5.99145e-73 2.55279e-73 1.04866e-73 4.1562e-74 1.59042e-74 5.88029e-75 2.10219e-75 7.27194e-76 2.43582e-76 7.9061e-77 2.48832e-77 7.59931e-78 2.25347e-78 6.49264e-79 1.81868e-79 4.95588e-80 1.31454e-80 3.39596e-81 8.54926e-82 2.09849e-82 5.02483e-83 1.17433e-83 2.67995e-84 5.97494e-85 1.30199e-85 2.77421e-86 5.78248e-87 1.17953e-87 2.35558e-88 4.6073e-89 8.82911e-90 1.65831e-90 3.05381e-91 5.51562e-92 9.7738e-93 1.69976e-93 2.90196e-94 4.86227e-95 7.80681e-96 0 
0 5.46672e-136 6.10367e-135 6.69191e-134 7.25982e-133 7.79296e-132 8.27629e-131 8.69523e-130 9.03634e-129 9.28802e-128 9.44118e-127 9.4897e-126 9.43089e-125 9.26566e-124 8.99852e-123 8.63744e-122 8.19338e-121 7.67982e-120 7.11201e-119 6.50623e-118 5.87899e-117 5.24629e-116 4.62293e-115 4.02192e-114 3.45411e-113 2.92793e-112 2.44928e-111 2.02162e-110 1.64617e-109 1.32217e-108 1.04729e-107 8.17965e-107 6.29814e-106 4.77991e-105 3.57499e-104 2.63445e-103 1.91241e-102 1.36728e-101 9.62559e-101 6.67106e-100 4.55055e-99 3.05446e-98 2.01699e-97 1.30998e-96 8.36581e-96 5.25198e-95 3.24036e-94 1.96426e-93 1.16955e-92 6.83788e-92 3.92447e-91 2.21035e-90 1.2213e-89 6.61785e-89 3.51561e-88 1.83028e-87 9.33489e-87 4.66241e-86 2.27956e-85 1.09057e-84 5.10315e-84 2.33461e-83 1.04372e-82 4.55771e-82 1.94308e-81 8.08345e-81 3.27974e-80 1.29713e-79 4.99789e-79 1.87497e-78 6.8445e-78 2.42974e-77 8.38235e-77 2.80844e-76 9.1318e-76 2.87954e-75 8.79913e-75 2.60358e-74 7.45364e-74 2.06288e-73 5.51468e-73 1.42275e-72 3.53925e-72 8.48155e-72 1.95624e-71 4.33859e-71 9.24385e-71 1.89033e-70 3.70695e-70 6.96489e-70 1.2528e-69 2.15575e-69 3.54645e-69 5.57503e-69 8.37166e-69 1.20068e-68 1.64495e-68 2.15358e-68 2.6965e-68 3.23287e-68 3.7176e-68 4.10959e-68 4.3798e-68 4.51661e-68 4.52737e-68 4.43615e-68 4.27886e-68 4.09738e-68 3.93389e-68 3.826e-68 3.8026e-68 3.88055e-68 4.0622e-68 4.33464e-68 4.67099e-68 5.03454e-68 5.38489e-68 5.68533e-68 5.90937e-68 6.04513e-68 6.09636e-68 6.08022e-68 6.02263e-68 5.95248e-68 5.89619e-68 5.87353e-68 5.89536e-68 5.96325e-68 6.071e-68 6.20734e-68 6.35918e-68 6.51433e-68 6.66293e-68 6.79719e-68 6.90986e-68 6.99251e-68 7.03477e-68 7.0254e-68 6.95486e-68 6.81851e-68 6.61889e-68 6.36602e-68 6.07554e-68 5.76528e-68 5.4516e-68 5.14675e-68 4.85824e-68 4.59002e-68 4.34507e-68 4.12813e-68 3.94717e-68 3.81296e-68 3.73637e-68 3.72444e-68 3.77668e-68 3.88325e-68 4.02602e-68 4.18222e-68 4.32942e-68 4.45016e-68 4.53474e-68 4.58183e-68 4.59726e-68 4.5919e-68 4.57943e-68 4.57432e-68 4.58978e-68 4.63551e-68 4.71526e-68 4.82506e-68 4.95264e-68 5.07918e-68 5.18299e-68 5.24457e-68 5.25178e-68 5.20353e-68 5.11127e-68 4.99764e-68 4.89278e-68 4.82896e-68 4.83467e-68 4.92931e-68 5.11933e-68 5.39656e-68 5.73884e-68 6.11293e-68 6.47938e-68 6.79836e-68 7.03554e-68 7.16653e-68 7.17897e-68 7.07178e-68 6.85223e-68 6.53201e-68 6.12411e-68 5.64133e-68 5.09691e-68 4.50612e-68 3.8878e-68 3.26445e-68 2.66058e-68 2.0998e-68 1.60153e-68 1.17848e-68 8.3551e-69 5.70115e-69 3.74119e-69 2.35965e-69 1.42994e-69 8.32415e-70 4.6549e-70 2.50083e-70 1.29114e-70 6.40816e-71 3.05891e-71 1.40509e-71 6.21452e-72 2.64821e-72 1.08802e-72 4.31284e-73 1.65062e-73 6.10387e-74 2.1825e-74 7.55106e-75 2.52977e-75 8.21262e-76 2.5853e-76 7.89707e-77 2.34225e-77 6.74989e-78 1.89115e-78 5.15454e-79 1.36755e-79 3.53375e-80 8.89831e-81 2.18471e-81 5.23261e-82 1.22321e-82 2.79223e-83 6.22694e-84 1.35727e-84 2.89281e-85 6.03139e-86 1.23066e-86 2.45841e-87 4.80985e-88 9.22002e-89 1.73226e-89 3.19097e-90 5.76515e-91 1.02192e-91 1.77778e-92 3.03615e-93 5.08877e-94 8.17303e-95 0 
0 5.75643e-135 6.42448e-134 7.04068e-133 7.635e-132 8.19227e-131 8.69675e-130 9.13318e-129 9.48754e-128 9.74777e-127 9.90443e-126 9.95125e-125 9.88554e-124 9.70838e-123 9.42466e-122 9.04281e-121 8.57446e-120 8.03378e-119 7.43682e-118 6.80066e-117 6.14259e-116 5.47936e-115 4.8264e-114 4.19729e-113 3.60332e-112 3.05322e-111 2.55309e-110 2.1065e-109 1.71462e-108 1.37663e-107 1.09001e-106 8.51009e-106 6.55012e-105 4.96929e-104 3.71525e-103 2.7368e-102 1.98598e-101 1.41936e-100 9.98862e-100 6.92017e-99 4.71879e-98 3.16627e-97 2.09008e-96 1.35698e-95 8.66296e-95 5.43666e-94 3.35316e-93 2.03195e-92 1.20945e-91 7.06885e-91 4.0557e-90 2.28352e-89 1.26132e-88 6.83257e-88 3.62854e-87 1.88849e-86 9.62884e-86 4.80778e-85 2.34994e-84 1.12391e-83 5.25764e-83 2.4046e-82 1.07471e-81 4.69175e-81 1.99969e-80 8.31675e-80 3.37353e-79 1.33388e-78 5.13822e-78 1.92714e-77 7.03329e-77 2.49618e-76 8.60962e-76 2.88395e-75 9.37531e-75 2.95571e-74 9.03009e-74 2.6714e-73 7.64637e-73 2.11584e-72 5.65528e-72 1.45878e-71 3.6283e-71 8.69365e-71 2.00487e-70 4.44585e-70 9.4712e-70 1.9366e-69 3.79726e-69 7.13387e-69 1.28308e-68 2.20768e-68 3.63164e-68 5.70862e-68 8.57187e-68 1.22936e-67 1.6842e-67 2.20497e-67 2.76088e-67 3.31017e-67 3.80668e-67 4.20837e-67 4.48549e-67 4.62614e-67 4.63782e-67 4.5451e-67 4.3847e-67 4.19946e-67 4.0325e-67 3.92228e-67 3.89836e-67 3.97797e-67 4.16356e-67 4.44191e-67 4.78561e-67 5.15711e-67 5.51518e-67 5.82229e-67 6.05137e-67 6.19028e-67 6.24284e-67 6.22659e-67 6.16796e-67 6.09648e-67 6.03912e-67 6.01608e-67 6.03843e-67 6.1078e-67 6.21784e-67 6.35705e-67 6.51208e-67 6.67047e-67 6.82218e-67 6.95926e-67 7.07429e-67 7.15866e-67 7.2018e-67 7.19222e-67 7.12018e-67 6.98092e-67 6.77701e-67 6.51866e-67 6.22184e-67 5.90474e-67 5.58405e-67 5.27231e-67 4.97719e-67 4.70274e-67 4.45205e-67 4.22994e-67 4.04463e-67 3.90713e-67 3.82862e-67 3.81631e-67 3.86971e-67 3.97877e-67 4.12495e-67 4.28493e-67 4.43575e-67 4.55951e-67 4.64626e-67 4.69464e-67 4.71058e-67 4.7052e-67 4.69249e-67 4.68728e-67 4.70306e-67 4.74976e-67 4.83126e-67 4.94345e-67 5.07386e-67 5.20323e-67 5.30939e-67 5.37243e-67 5.37992e-67 5.33075e-67 5.23661e-67 5.12061e-67 5.01356e-67 4.9484e-67 4.95425e-67 5.05091e-67 5.245e-67 5.52814e-67 5.87771e-67 6.25976e-67 6.634e-67 6.95977e-67 7.20198e-67 7.33574e-67 7.3484e-67 7.23883e-67 7.01441e-67 6.68705e-67 6.26996e-67 5.7762e-67 5.21925e-67 4.61475e-67 3.98194e-67 3.34385e-67 2.72559e-67 2.15135e-67 1.64105e-67 1.2077e-67 8.56324e-68 5.84386e-68 3.83529e-68 2.41928e-68 1.46624e-68 8.53647e-69 4.77418e-69 2.56521e-69 1.32453e-69 6.5747e-70 3.1388e-70 1.44197e-70 6.37846e-71 2.71844e-71 1.11703e-71 4.4285e-72 1.69515e-72 6.26952e-73 2.2421e-73 7.75859e-74 2.59976e-74 8.44139e-75 2.65783e-75 8.1202e-76 2.40892e-76 6.94346e-77 1.94581e-77 5.30468e-78 1.4077e-78 3.63834e-79 9.16388e-80 2.25046e-80 5.39143e-81 1.26066e-81 2.87846e-82 6.42095e-83 1.39994e-83 2.98457e-84 6.22444e-85 1.27041e-85 2.53854e-86 4.96808e-87 9.52617e-88 1.79031e-88 3.29892e-89 5.96203e-90 1.05715e-90 1.83965e-91 3.14282e-92 5.26924e-93 8.46551e-94 0 
0 5.99577e-134 6.68883e-133 7.32733e-132 7.94253e-131 8.5187e-130 9.03952e-129 9.48923e-128 9.85333e-127 1.01194e-125 1.02779e-124 1.03222e-123 1.02499e-122 1.00621e-121 9.76409e-121 9.36471e-120 8.87612e-119 8.31309e-118 7.6923e-117 7.03149e-116 6.34858e-115 5.66087e-114 4.98432e-113 4.33293e-112 3.71832e-111 3.14944e-110 2.63254e-109 2.17121e-108 1.76662e-107 1.41784e-106 1.12222e-105 8.75826e-105 6.73861e-104 5.1104e-103 3.81933e-102 2.81244e-101 2.04013e-100 1.45753e-99 1.02535e-98 7.10118e-98 4.8405e-97 3.24679e-96 2.14249e-95 1.39052e-94 8.87405e-94 5.56724e-93 3.43254e-92 2.07936e-91 1.23726e-90 7.22901e-90 4.14625e-89 2.33375e-88 1.28866e-87 6.97848e-87 3.70488e-86 1.92763e-85 9.82545e-85 4.90449e-84 2.3965e-83 1.14585e-82 5.35876e-82 2.45016e-81 1.09477e-80 4.77804e-80 2.03592e-79 8.46526e-79 3.43289e-78 1.35702e-77 5.22605e-77 1.95962e-76 7.15016e-76 2.53708e-75 8.74876e-75 2.92993e-74 9.5228e-74 3.00161e-73 9.16851e-73 2.71184e-72 7.76071e-72 2.1471e-71 5.73788e-71 1.47985e-70 3.68015e-70 8.8166e-70 2.03295e-69 4.50752e-69 9.60142e-69 1.96301e-68 3.84864e-68 7.22971e-68 1.30021e-67 2.23699e-67 3.6796e-67 5.78371e-67 8.68427e-67 1.24545e-66 1.70621e-66 2.23379e-66 2.79701e-66 3.35359e-66 3.85682e-66 4.26411e-66 4.54534e-66 4.68842e-66 4.70092e-66 4.60768e-66 4.44586e-66 4.25877e-66 4.09007e-66 3.97866e-66 3.95446e-66 4.03491e-66 4.2225e-66 4.5039e-66 4.85137e-66 5.227e-66 5.58908e-66 5.89968e-66 6.13144e-66 6.27207e-66 6.32543e-66 6.30923e-66 6.25018e-66 6.17812e-66 6.12029e-66 6.0971e-66 6.11975e-66 6.18987e-66 6.30106e-66 6.44171e-66 6.59831e-66 6.75831e-66 6.91155e-66 7.05001e-66 7.1662e-66 7.25143e-66 7.29501e-66 7.28532e-66 7.21253e-66 7.0718e-66 6.86571e-66 6.60456e-66 6.30447e-66 5.9838e-66 5.65943e-66 5.34402e-66 5.04534e-66 4.76749e-66 4.51361e-66 4.28863e-66 4.10086e-66 3.9615e-66 3.88186e-66 3.86929e-66 3.9233e-66 4.03373e-66 4.18182e-66 4.34394e-66 4.49684e-66 4.62235e-66 4.7104e-66 4.75957e-66 4.77586e-66 4.77051e-66 4.75771e-66 4.75244e-66 4.76838e-66 4.81557e-66 4.89795e-66 5.0114e-66 5.14328e-66 5.27414e-66 5.38157e-66 5.44542e-66 5.45312e-66 5.40354e-66 5.30849e-66 5.19133e-66 5.08319e-66 5.01737e-66 5.0233e-66 5.12099e-66 5.31712e-66 5.60324e-66 5.95647e-66 6.34252e-66 6.72067e-66 7.04983e-66 7.29457e-66 7.42971e-66 7.44246e-66 7.33164e-66 7.10467e-66 6.77355e-66 6.35158e-66 5.85192e-66 5.28819e-66 4.67618e-66 4.03537e-66 3.38909e-66 2.76279e-66 2.18096e-66 1.66383e-66 1.22461e-66 8.68418e-67 5.92709e-67 3.89037e-67 2.4543e-67 1.48764e-67 8.66202e-68 4.84494e-68 2.60353e-68 1.34447e-68 6.67444e-69 3.1868e-69 1.4642e-69 6.47762e-70 2.76107e-70 1.1347e-70 4.49919e-71 1.72246e-71 6.37152e-72 2.27894e-72 7.88739e-73 2.64338e-73 8.58454e-74 2.7034e-74 8.261e-75 2.45118e-75 7.0667e-76 1.98076e-76 5.40113e-77 1.43361e-77 3.70616e-78 9.33688e-79 2.29349e-79 5.49587e-80 1.2854e-80 2.9357e-81 6.55034e-82 1.42853e-82 3.04634e-83 6.35502e-84 1.29742e-84 2.59326e-85 5.07663e-86 9.73717e-87 1.83051e-87 3.37401e-88 6.09959e-89 1.08187e-89 1.88327e-90 3.21835e-91 5.3976e-92 8.6744e-93 0 
0 6.17668e-133 6.88782e-132 7.54216e-131 8.172e-130 8.76118e-129 9.29298e-128 9.75127e-127 1.01213e-125 1.03903e-124 1.05487e-123 1.05899e-122 1.05114e-121 1.03147e-120 1.00051e-119 9.59205e-119 9.08795e-118 8.50809e-117 7.86962e-116 7.19072e-115 6.48978e-114 5.78451e-113 5.09119e-112 4.42412e-111 3.7951e-110 3.21323e-109 2.68483e-108 2.2135e-107 1.80034e-106 1.44436e-105 1.14278e-104 8.91537e-104 6.85695e-103 5.19822e-102 3.88354e-101 2.85868e-100 2.07292e-99 1.48042e-98 1.04109e-97 7.20758e-97 4.9113e-96 3.29313e-95 2.17231e-94 1.40939e-93 8.99143e-93 5.63897e-92 3.47561e-91 2.10475e-90 1.25195e-89 7.31251e-89 4.1928e-88 2.3592e-87 1.3023e-86 7.05019e-86 3.74181e-85 1.94626e-84 9.91743e-84 4.94895e-83 2.41753e-82 1.15558e-81 5.40272e-81 2.46958e-80 1.10315e-79 4.81333e-79 2.05043e-78 8.52339e-78 3.4556e-77 1.36566e-76 5.25808e-76 1.97117e-75 7.19067e-75 2.55089e-74 8.79448e-74 2.94463e-73 9.56863e-73 3.01546e-72 9.20908e-72 2.72334e-71 7.79225e-71 2.15547e-70 5.7593e-70 1.48514e-69 3.69277e-69 8.84562e-69 2.03937e-68 4.52121e-68 9.62946e-68 1.96853e-67 3.85909e-67 7.24869e-67 1.30352e-66 2.24252e-66 3.68849e-66 5.79739e-66 8.70448e-66 1.24831e-65 1.71012e-65 2.23891e-65 2.80347e-65 3.36146e-65 3.86607e-65 4.27465e-65 4.55702e-65 4.70103e-65 4.71424e-65 4.6215e-65 4.45998e-65 4.27305e-65 4.10441e-65 3.99299e-65 3.96876e-65 4.04919e-65 4.23679e-65 4.51821e-65 4.86576e-65 5.24149e-65 5.60371e-65 5.91449e-65 6.14645e-65 6.28731e-65 6.3409e-65 6.32493e-65 6.2661e-65 6.19422e-65 6.13654e-65 6.11346e-65 6.13617e-65 6.20629e-65 6.31744e-65 6.45801e-65 6.61452e-65 6.77441e-65 6.92755e-65 7.0659e-65 7.18202e-65 7.26719e-65 7.31074e-65 7.30105e-65 7.22829e-65 7.08759e-65 6.88153e-65 6.62038e-65 6.32022e-65 5.99941e-65 5.67482e-65 5.3591e-65 5.06004e-65 4.78175e-65 4.5274e-65 4.30194e-65 4.11371e-65 3.97396e-65 3.89404e-65 3.88133e-65 3.93538e-65 4.04602e-65 4.19444e-65 4.35699e-65 4.51033e-65 4.63627e-65 4.72468e-65 4.77412e-65 4.79058e-65 4.78534e-65 4.77257e-65 4.76729e-65 4.78322e-65 4.8304e-65 4.91279e-65 5.02627e-65 5.15822e-65 5.28918e-65 5.39672e-65 5.4607e-65 5.46853e-65 5.41908e-65 5.32413e-65 5.20707e-65 5.09899e-65 5.03322e-65 5.03916e-65 5.13683e-65 5.33291e-65 5.61894e-65 5.97206e-65 6.35798e-65 6.73599e-65 7.06503e-65 7.30968e-65 7.44476e-65 7.45745e-65 7.34656e-65 7.11947e-65 6.78813e-65 6.36578e-65 5.86555e-65 5.30103e-65 4.68802e-65 4.04604e-65 3.39844e-65 2.77072e-65 2.18749e-65 1.669e-65 1.22857e-65 8.71328e-66 5.94766e-66 3.90432e-66 2.46339e-66 1.49331e-66 8.69602e-67 4.8645e-67 2.61432e-67 1.35019e-67 6.70362e-68 3.2011e-68 1.47095e-68 6.50825e-69 2.77448e-69 1.14036e-69 4.52225e-70 1.73153e-70 6.40603e-71 2.29163e-71 7.93261e-72 2.65897e-72 8.63668e-73 2.7203e-73 8.31421e-74 2.46744e-74 7.11499e-75 1.9947e-75 5.44029e-76 1.44432e-76 3.73468e-77 9.41086e-78 2.31221e-78 5.54205e-79 1.29652e-79 2.96184e-80 6.61034e-81 1.44199e-81 3.07586e-82 6.41835e-83 1.31071e-83 2.62056e-84 5.13153e-85 9.84531e-86 1.85139e-86 3.4135e-87 6.17284e-88 1.0952e-88 1.90706e-89 3.26002e-90 5.46923e-91 8.79218e-92 0 