# vtk DataFile Version 3.0
Gray-Scott Simulation Output
ASCII
DATASET STRUCTURED_POINTS
DIMENSIONS 256 256 1
SPACING 1.0 1.0 1.0
ORIGIN 0 0 0
POINT_DATA 65536
SCALARS u double
LOOKUP_TABLE default
0 0 0 0 0 0 0 0 0 0 0 0 0 0 0 0 0 0 0 0 0 0 0 0 0 0 0 0 0 0 0 0 0 0 0 0 0 0 0 0 0 0 0 0 0 0 0 0 0 0 0 0 0 0 0 0 0 0 0 0 0 0 0 0 0 0 0 0 0 0 0 0 0 0 0 0 0 0 0 0 0 0 0 0 0 0 0 0 0 0 0 0 0 0 0 0 0 0 0 0 0 0 0 0 0 0 0 0 0 0 0 0 0 0 0 0 0 0 0 0 0 0 0 0 0 0 0 0 0 0 0 0 0 0 0 0 0 0 0 0 0 0 0 0 0 0 0 0 0 0 0 0 0 0 0 0 0 0 0 0 0 0 0 0 0 0 0 0 0 0 0 0 0 0 0 0 0 0 0 0 0 0 0 0 0 0 0 0 0 0 0 0 0 0 0 0 0 0 0 0 0 0 0 0 0 0 0 0 0 0 0 0 0 0 0 0 0 0 0 0 0 0 0 0 0 0 0 0 0 0 0 0 0 0 0 0 0 0 0 0 0 0 0 0 0 0 0 0 0 0 0 0 0 0 0 0 
0 4.16552e-116 3.13282e-115 2.29269e-114 1.66052e-113 1.19049e-112 8.44788e-112 5.93295e-111 4.12336e-110 2.83561e-109 1.92936e-108 1.29869e-107 8.64725e-107 5.69487e-106 3.70917e-105 2.38895e-104 1.52134e-103 9.57818e-103 5.9611e-102 3.66694e-101 2.22927e-100 1.3392e-99 7.9488e-99 4.66089e-98 2.69955e-97 1.54423e-96 8.72296e-96 4.86508e-95 2.67871e-94 1.45582e-93 7.80845e-93 4.1327e-92 2.15797e-91 1.11154e-90 5.64683e-90 2.82883e-89 1.39719e-88 6.80263e-88 3.26428e-87 1.5435e-86 7.19036e-86 3.2994e-85 1.49098e-84 6.63391e-84 2.90562e-83 1.25252e-82 5.31262e-82 2.21673e-81 9.09698e-81 3.67076e-80 1.45607e-79 5.6763e-79 2.17418e-78 8.18004e-78 3.02223e-77 1.0962e-76 3.9023e-76 1.36298e-75 4.66944e-75 1.56861e-74 5.16536e-74 1.66679e-73 5.26881e-73 1.63097e-72 4.94232e-72 1.46558e-71 4.25134e-71 1.20591e-70 3.34361e-70 9.05842e-70 2.39694e-69 6.19228e-69 1.56119e-68 3.83967e-68 9.20823e-68 2.15238e-67 4.90156e-67 1.08701e-66 2.34653e-66 4.92862e-66 1.0068e-65 1.99936e-65 3.85826e-65 7.23211e-65 1.31626e-64 2.32518e-64 3.98531e-64 6.62547e-64 1.06807e-63 1.66917e-63 2.52839e-63 3.7117e-63 5.28033e-63 7.27984e-63 9.72769e-63 1.26017e-62 1.58322e-62 1.93008e-62 2.2848e-62 2.62883e-62 2.94341e-62 3.21202e-62 3.42291e-62 3.57079e-62 3.65769e-62 3.69261e-62 3.69024e-62 3.66882e-62 3.64759e-62 3.64422e-62 3.67253e-62 3.74078e-62 3.8508e-62 3.99805e-62 4.17261e-62 4.36088e-62 4.54789e-62 4.71966e-62 4.86533e-62 4.97862e-62 5.0584e-62 5.10843e-62 5.13619e-62 5.15127e-62 5.16363e-62 5.18195e-62 5.2125e-62 5.25854e-62 5.32028e-62 5.39528e-62 5.47911e-62 5.56603e-62 5.64959e-62 5.72313e-62 5.78005e-62 5.81415e-62 5.81995e-62 5.79313e-62 5.73104e-62 5.63313e-62 5.50113e-62 5.33904e-62 5.15271e-62 4.94925e-62 4.73633e-62 4.52159e-62 4.3123e-62 4.1152e-62 3.93653e-62 3.78203e-62 3.65681e-62 3.56494e-62 3.50887e-62 3.48881e-62 3.50226e-62 3.54404e-62 3.60671e-62 3.68151e-62 3.75964e-62 3.83351e-62 3.8978e-62 3.95002e-62 3.99062e-62 4.02251e-62 4.0502e-62 4.07872e-62 4.11246e-62 4.15416e-62 4.20419e-62 4.26034e-62 4.31813e-62 4.37167e-62 4.41497e-62 4.4434e-62 4.45503e-62 4.45158e-62 4.4386e-62 4.42498e-62 4.42166e-62 4.43981e-62 4.48887e-62 4.57464e-62 4.69802e-62 4.8543e-62 5.03348e-62 5.22125e-62 5.40067e-62 5.55409e-62 5.66508e-62 5.72002e-62 5.70912e-62 5.62686e-62 5.47193e-62 5.24677e-62 4.95701e-62 4.61095e-62 4.21907e-62 3.79366e-62 3.34831e-62 2.89737e-62 2.4551e-62 2.03475e-62 1.64758e-62 1.30207e-62 1.00342e-62 7.53447e-63 5.50882e-63 3.91981e-63 2.71322e-63 1.82631e-63 1.19517e-63 7.60302e-64 4.70118e-64 2.82544e-64 1.65061e-64 9.37396e-65 5.17589e-65 2.77913e-65 1.45141e-65 7.37454e-66 3.64639e-66 1.7551e-66 8.22597e-67 3.75544e-67 1.6706e-67 7.24385e-68 3.06273e-68 1.26312e-68 5.08322e-69 1.99685e-69 7.6599e-70 2.87032e-70 1.05105e-70 3.76232e-71 1.31699e-71 4.50978e-72 1.5112e-72 4.95715e-73 1.59231e-73 5.01016e-74 1.5447e-74 4.66807e-75 1.38315e-75 4.01948e-76 1.14595e-76 3.20614e-77 8.80529e-78 2.37448e-78 6.28886e-79 1.63633e-79 4.18384e-80 1.05145e-80 2.59756e-81 6.29379e-82 1.42658e-82 0 
0 3.13344e-115 2.35612e-114 1.72391e-113 1.24831e-112 8.94769e-112 6.34808e-111 4.45733e-110 3.09718e-109 2.12948e-108 1.44861e-107 9.74892e-107 6.48997e-106 4.2733e-105 2.78273e-104 1.79192e-103 1.14092e-102 7.18174e-102 4.46881e-101 2.74846e-100 1.67059e-99 1.0034e-98 5.95461e-98 3.49096e-97 2.02159e-96 1.15621e-95 6.53008e-95 3.64144e-94 2.00465e-93 1.0893e-92 5.84171e-92 3.09131e-91 1.61394e-90 8.31198e-90 4.22202e-89 2.11476e-88 1.04436e-87 5.08408e-87 2.4393e-86 1.15326e-85 5.37178e-85 2.46462e-84 1.11361e-83 4.95431e-83 2.16972e-82 9.35197e-82 3.96627e-81 1.6548e-80 6.79026e-80 2.73971e-79 1.08666e-78 4.23585e-78 1.62232e-77 6.10328e-77 2.25478e-76 8.17785e-76 2.911e-75 1.01668e-74 3.48287e-74 1.16995e-73 3.85241e-73 1.24307e-72 3.92926e-72 1.21627e-71 3.68555e-71 1.09288e-70 3.17015e-70 8.99214e-70 2.4932e-69 6.75447e-69 1.78728e-68 4.6173e-68 1.16411e-67 2.86309e-67 6.86629e-67 1.60498e-66 3.65505e-66 8.10588e-66 1.74986e-65 3.67546e-65 7.50826e-65 1.49108e-64 2.87748e-64 5.39383e-64 9.81716e-64 1.73426e-63 2.97257e-63 4.94197e-63 7.96698e-63 1.24511e-62 1.8861e-62 2.76889e-62 3.93918e-62 5.43098e-62 7.25736e-62 9.40177e-62 1.18123e-61 1.44008e-61 1.7048e-61 1.96158e-61 2.19642e-61 2.397e-61 2.55454e-61 2.6651e-61 2.73017e-61 2.75646e-61 2.75491e-61 2.7391e-61 2.72336e-61 2.72087e-61 2.74192e-61 2.79266e-61 2.87447e-61 2.984e-61 3.11384e-61 3.2539e-61 3.39303e-61 3.52085e-61 3.62926e-61 3.71358e-61 3.773e-61 3.81028e-61 3.83099e-61 3.84226e-61 3.85149e-61 3.86515e-61 3.88789e-61 3.92213e-61 3.96804e-61 4.0238e-61 4.08611e-61 4.15072e-61 4.21284e-61 4.26751e-61 4.30983e-61 4.33519e-61 4.3395e-61 4.31957e-61 4.27341e-61 4.2006e-61 4.10243e-61 3.98187e-61 3.84326e-61 3.69189e-61 3.53346e-61 3.37365e-61 3.21787e-61 3.07113e-61 2.9381e-61 2.82305e-61 2.72979e-61 2.66136e-61 2.61959e-61 2.60465e-61 2.61468e-61 2.64583e-61 2.69254e-61 2.7483e-61 2.80655e-61 2.86162e-61 2.90955e-61 2.94848e-61 2.97874e-61 3.0025e-61 3.02311e-61 3.04433e-61 3.06943e-61 3.10045e-61 3.13766e-61 3.17944e-61 3.22244e-61 3.26229e-61 3.29453e-61 3.31572e-61 3.32441e-61 3.32187e-61 3.31224e-61 3.30213e-61 3.29966e-61 3.31315e-61 3.34961e-61 3.41337e-61 3.50509e-61 3.62127e-61 3.75448e-61 3.89408e-61 4.02747e-61 4.14151e-61 4.22401e-61 4.26481e-61 4.25662e-61 4.19534e-61 4.07997e-61 3.9123e-61 3.69652e-61 3.43877e-61 3.14684e-61 2.82986e-61 2.49795e-61 2.1618e-61 1.83204e-61 1.51856e-61 1.22975e-61 9.7198e-62 7.49127e-62 5.62565e-62 4.11361e-62 2.92732e-62 2.02641e-62 1.36411e-62 8.9276e-63 5.67958e-63 3.51204e-63 2.11085e-63 1.23319e-63 7.00362e-64 3.86718e-64 2.07647e-64 1.08445e-64 5.5101e-65 2.72452e-65 1.31138e-65 6.1463e-66 2.806e-66 1.24823e-66 5.41243e-67 2.28839e-67 9.4377e-68 3.79803e-68 1.49199e-68 5.72326e-69 2.14463e-69 7.85321e-70 2.81115e-70 9.84049e-71 3.36974e-71 1.1292e-71 3.70418e-72 1.18987e-72 3.744e-73 1.15436e-73 3.48862e-74 1.03372e-74 3.00416e-75 8.56528e-76 2.39653e-76 6.58217e-77 1.77509e-77 4.70169e-78 1.22344e-78 3.12839e-79 7.86268e-80 1.94259e-80 4.70724e-81 1.06705e-81 0 
0 2.29362e-114 1.72427e-113 1.26132e-112 9.13144e-112 6.54386e-111 4.64165e-110 3.25846e-109 2.26366e-108 1.55606e-107 1.05832e-106 7.12084e-106 4.73946e-105 3.12006e-104 2.03135e-103 1.30781e-102 8.32523e-102 5.23947e-101 3.25962e-100 2.00439e-99 1.2181e-98 7.31489e-98 4.34017e-97 2.54402e-96 1.47297e-95 8.42291e-95 4.75629e-94 2.65186e-93 1.45963e-92 7.93021e-92 4.25213e-91 2.24978e-90 1.17441e-89 6.04743e-89 3.07131e-88 1.53816e-87 7.59505e-87 3.69686e-86 1.77349e-85 8.38368e-85 3.90454e-84 1.79122e-83 8.09247e-83 3.59982e-82 1.57635e-81 6.79368e-81 2.88098e-80 1.20188e-79 4.93129e-79 1.98948e-78 7.89024e-78 3.07541e-77 1.17778e-76 4.43058e-76 1.63671e-75 5.93579e-75 2.11278e-74 7.37861e-74 2.52758e-73 8.49012e-73 2.79552e-72 9.02007e-72 2.85109e-71 8.82509e-71 2.67412e-70 7.92945e-70 2.30009e-69 6.52416e-69 1.8089e-68 4.9006e-68 1.29674e-67 3.35005e-67 8.44624e-67 2.07735e-66 4.982e-66 1.16456e-65 2.65212e-65 5.88182e-65 1.26977e-64 2.66716e-64 5.44867e-64 1.0821e-63 2.0883e-63 3.91465e-63 7.1252e-63 1.25876e-62 2.15762e-62 3.58721e-62 5.78317e-62 9.0385e-62 1.3692e-61 2.01011e-61 2.8598e-61 3.94295e-61 5.26908e-61 6.82621e-61 8.57669e-61 1.04565e-60 1.23791e-60 1.42444e-60 1.59505e-60 1.74081e-60 1.85534e-60 1.93578e-60 1.98321e-60 2.00247e-60 2.00151e-60 1.99015e-60 1.9788e-60 1.97701e-60 1.99223e-60 2.02893e-60 2.08813e-60 2.16739e-60 2.26136e-60 2.36274e-60 2.46347e-60 2.55601e-60 2.63451e-60 2.69559e-60 2.73864e-60 2.76567e-60 2.7807e-60 2.7889e-60 2.79561e-60 2.80552e-60 2.82198e-60 2.84676e-60 2.87997e-60 2.92031e-60 2.96538e-60 3.01211e-60 3.05704e-60 3.09658e-60 3.1272e-60 3.14554e-60 3.14867e-60 3.13426e-60 3.10087e-60 3.04819e-60 2.97715e-60 2.8899e-60 2.78958e-60 2.68e-60 2.56529e-60 2.44957e-60 2.33675e-60 2.23046e-60 2.13408e-60 2.05072e-60 1.98313e-60 1.93353e-60 1.90326e-60 1.89243e-60 1.89971e-60 1.9223e-60 1.95619e-60 1.99664e-60 2.03889e-60 2.07884e-60 2.11362e-60 2.14186e-60 2.16381e-60 2.18103e-60 2.19596e-60 2.21132e-60 2.22948e-60 2.25192e-60 2.27886e-60 2.3091e-60 2.34024e-60 2.3691e-60 2.39246e-60 2.40782e-60 2.41414e-60 2.41233e-60 2.40537e-60 2.39806e-60 2.39628e-60 2.40603e-60 2.4324e-60 2.47851e-60 2.54485e-60 2.62889e-60 2.72525e-60 2.82623e-60 2.92271e-60 3.0052e-60 3.06486e-60 3.09433e-60 3.08835e-60 3.04393e-60 2.96034e-60 2.83885e-60 2.68249e-60 2.49568e-60 2.28407e-60 2.05424e-60 1.81353e-60 1.56969e-60 1.33042e-60 1.10292e-60 8.93277e-61 7.06121e-61 5.44289e-61 4.08786e-61 2.98945e-61 2.12755e-61 1.47291e-61 9.91589e-62 6.49004e-62 4.12909e-62 2.5534e-62 1.53474e-62 8.96653e-63 5.09246e-63 2.81195e-63 1.50989e-63 7.88558e-64 4.00667e-64 1.98113e-64 9.53565e-65 4.46923e-65 2.04034e-65 9.07627e-66 3.93549e-66 1.66392e-66 6.86223e-67 2.76155e-67 1.08482e-67 4.16134e-68 1.55934e-68 5.71001e-69 2.04397e-69 7.15502e-70 2.45016e-70 8.21064e-71 2.69342e-71 8.65208e-72 2.72251e-72 8.39436e-73 2.53696e-73 7.51763e-74 2.18484e-74 6.22957e-75 1.7431e-75 4.78776e-76 1.29125e-76 3.42035e-77 8.90083e-78 2.27614e-78 5.72115e-79 1.41361e-79 3.42571e-80 7.76613e-81 0 
0 1.66155e-113 1.24883e-112 9.13337e-112 6.61074e-111 4.73643e-110 3.3589e-109 2.35746e-108 1.63739e-107 1.12533e-106 7.65204e-106 5.1476e-105 3.42543e-104 2.25456e-103 1.46756e-102 9.44654e-102 6.01229e-101 3.78311e-100 2.35313e-99 1.44671e-98 8.79022e-98 5.27774e-97 3.1309e-96 1.83488e-95 1.06219e-94 6.07292e-94 3.42872e-93 1.91136e-92 1.05188e-91 5.71395e-91 3.0633e-90 1.62053e-89 8.45807e-89 4.35471e-88 2.21131e-87 1.1073e-86 5.46684e-86 2.6606e-85 1.2762e-84 6.03214e-84 2.80901e-83 1.28849e-82 5.82055e-82 2.5889e-81 1.13355e-80 4.88483e-80 2.07129e-79 8.64012e-79 3.54472e-78 1.42996e-77 5.67073e-77 2.21013e-76 8.46348e-76 3.18358e-75 1.17598e-74 4.26463e-74 1.51787e-73 5.30069e-73 1.8157e-72 6.09868e-72 2.00803e-71 6.47894e-71 2.04783e-70 6.3386e-70 1.92065e-69 5.69515e-69 1.65198e-68 4.68579e-68 1.2992e-67 3.51975e-67 9.31364e-67 2.40615e-66 6.06657e-66 1.4921e-65 3.57852e-65 8.36514e-65 1.90511e-64 4.22525e-64 9.12184e-64 1.91611e-63 3.91453e-63 7.77449e-63 1.50043e-62 2.81278e-62 5.11986e-62 9.04525e-62 1.5505e-61 2.57793e-61 4.15621e-61 6.49598e-61 9.84082e-61 1.44478e-60 2.05556e-60 2.83421e-60 3.78756e-60 4.90703e-60 6.16558e-60 7.51719e-60 8.89974e-60 1.02412e-59 1.14684e-59 1.25171e-59 1.33415e-59 1.3921e-59 1.42632e-59 1.44029e-59 1.43971e-59 1.43164e-59 1.42353e-59 1.42225e-59 1.43314e-59 1.45943e-59 1.50183e-59 1.55861e-59 1.62595e-59 1.6986e-59 1.77078e-59 1.83711e-59 1.89339e-59 1.93719e-59 1.96807e-59 1.98747e-59 1.99827e-59 2.00417e-59 2.00901e-59 2.01612e-59 2.02792e-59 2.04567e-59 2.06946e-59 2.09834e-59 2.13062e-59 2.16408e-59 2.19625e-59 2.22457e-59 2.24649e-59 2.25963e-59 2.26188e-59 2.25156e-59 2.22765e-59 2.18992e-59 2.13903e-59 2.07652e-59 2.00463e-59 1.9261e-59 1.84388e-59 1.76092e-59 1.68003e-59 1.60381e-59 1.53468e-59 1.47488e-59 1.42639e-59 1.39081e-59 1.36908e-59 1.36131e-59 1.36654e-59 1.38277e-59 1.4071e-59 1.43615e-59 1.4665e-59 1.4952e-59 1.52017e-59 1.54045e-59 1.55621e-59 1.56857e-59 1.57927e-59 1.59028e-59 1.60329e-59 1.61937e-59 1.63867e-59 1.66034e-59 1.68266e-59 1.70336e-59 1.72011e-59 1.73114e-59 1.73569e-59 1.7344e-59 1.72943e-59 1.7242e-59 1.72292e-59 1.7299e-59 1.74877e-59 1.78179e-59 1.8293e-59 1.88948e-59 1.95848e-59 2.0308e-59 2.09989e-59 2.15896e-59 2.20166e-59 2.22275e-59 2.21842e-59 2.18654e-59 2.12658e-59 2.03944e-59 1.92726e-59 1.79323e-59 1.64136e-59 1.47638e-59 1.30355e-59 1.12843e-59 9.56555e-60 7.93087e-60 6.42424e-60 5.07891e-60 3.91537e-60 2.94096e-60 2.15095e-60 1.53095e-60 1.05997e-60 7.13649e-61 4.67121e-61 2.97209e-61 1.83801e-61 1.1048e-61 6.45481e-62 3.66603e-62 2.02434e-62 1.08699e-62 5.67694e-63 2.88445e-63 1.42623e-63 6.86472e-64 3.21736e-64 1.4688e-64 6.53372e-65 2.83299e-65 1.19777e-65 4.93966e-66 1.98783e-66 7.80867e-67 2.99536e-67 1.12241e-67 4.11003e-68 1.47124e-68 5.15013e-69 1.76361e-69 5.91002e-70 1.93874e-70 6.22793e-71 1.95975e-71 6.04268e-72 1.82628e-72 5.41188e-73 1.57291e-73 4.48497e-74 1.255e-74 3.44727e-75 9.29772e-76 2.463e-76 6.40989e-77 1.63926e-77 4.12064e-78 1.01822e-78 2.46774e-79 5.59484e-80 0 
0 1.19148e-112 8.95338e-112 6.54666e-111 4.73745e-110 3.39354e-109 2.40606e-108 1.68836e-107 1.17242e-106 8.05597e-106 5.47682e-105 3.68356e-104 2.45071e-103 1.61269e-102 1.04955e-101 6.75452e-101 4.29812e-100 2.70399e-99 1.6816e-98 1.03366e-97 6.27938e-97 3.76953e-96 2.23579e-95 1.31007e-94 7.58257e-94 4.33449e-93 2.44681e-92 1.36377e-91 7.50401e-91 4.07565e-90 2.18466e-89 1.15555e-88 6.03027e-88 3.10429e-87 1.57613e-86 7.89133e-86 3.89549e-85 1.89561e-84 9.09147e-84 4.29668e-83 2.00062e-82 9.17575e-82 4.14455e-81 1.84324e-80 8.06983e-80 3.4772e-79 1.47429e-78 6.14923e-78 2.52259e-77 1.01754e-76 4.03493e-76 1.57248e-75 6.02124e-75 2.26478e-74 8.36537e-74 3.0335e-73 1.07963e-72 3.77013e-72 1.29137e-71 4.33739e-71 1.42807e-70 4.60759e-70 1.45632e-69 4.50765e-69 1.36585e-68 4.05001e-68 1.17478e-67 3.33224e-67 9.23916e-67 2.50308e-66 6.62355e-66 1.71121e-65 4.31455e-65 1.06121e-64 2.54521e-64 5.94988e-64 1.3551e-63 3.00553e-63 6.48888e-63 1.3631e-62 2.78488e-62 5.53121e-62 1.06754e-61 2.00136e-61 3.64308e-61 6.43654e-61 1.10338e-60 1.83461e-60 2.95794e-60 4.62334e-60 7.00422e-60 1.02836e-59 1.46316e-59 2.01748e-59 2.69621e-59 3.49324e-59 4.38934e-59 5.35177e-59 6.33631e-59 7.29169e-59 8.16585e-59 8.91309e-59 9.50075e-59 9.9141e-59 1.01586e-58 1.0259e-58 1.02556e-58 1.01987e-58 1.01414e-58 1.01323e-58 1.02095e-58 1.03959e-58 1.06967e-58 1.10995e-58 1.15772e-58 1.20927e-58 1.2605e-58 1.30758e-58 1.34753e-58 1.37863e-58 1.40056e-58 1.41435e-58 1.42204e-58 1.42625e-58 1.42969e-58 1.43475e-58 1.44312e-58 1.45572e-58 1.47259e-58 1.49307e-58 1.51595e-58 1.53968e-58 1.56249e-58 1.58257e-58 1.59812e-58 1.60744e-58 1.60904e-58 1.60172e-58 1.58477e-58 1.55801e-58 1.52191e-58 1.47756e-58 1.42655e-58 1.37082e-58 1.31247e-58 1.25358e-58 1.19615e-58 1.14202e-58 1.09293e-58 1.05045e-58 1.016e-58 9.90715e-59 9.7528e-59 9.69761e-59 9.73484e-59 9.85024e-59 1.00233e-58 1.02299e-58 1.04457e-58 1.06498e-58 1.08274e-58 1.09716e-58 1.10836e-58 1.11714e-58 1.12474e-58 1.13255e-58 1.14178e-58 1.15319e-58 1.16688e-58 1.18226e-58 1.1981e-58 1.2128e-58 1.2247e-58 1.23254e-58 1.23578e-58 1.23488e-58 1.23136e-58 1.22765e-58 1.22674e-58 1.23169e-58 1.24507e-58 1.26848e-58 1.30216e-58 1.34484e-58 1.39377e-58 1.44505e-58 1.49404e-58 1.53592e-58 1.5662e-58 1.58114e-58 1.57804e-58 1.55539e-58 1.51279e-58 1.45089e-58 1.3712e-58 1.27597e-58 1.16804e-58 1.05077e-58 9.27887e-59 8.03343e-59 6.81077e-59 5.64764e-59 4.57537e-59 3.61769e-59 2.78925e-59 2.09533e-59 1.53264e-59 1.09097e-59 7.55414e-60 5.08638e-60 3.32953e-60 2.11856e-60 1.31022e-60 7.87581e-61 4.60159e-61 2.61354e-61 1.44318e-61 7.7493e-62 4.04717e-62 2.05635e-62 1.01676e-62 4.89378e-63 2.29357e-63 1.04705e-63 4.65752e-64 2.01943e-64 8.5378e-65 3.52096e-65 1.41688e-65 5.56573e-66 2.13494e-66 7.99987e-67 2.92934e-67 1.04858e-67 3.67058e-68 1.25695e-68 4.21216e-69 1.38178e-69 4.43879e-70 1.39678e-70 4.30689e-71 1.3017e-71 3.85748e-72 1.12117e-72 3.197e-73 8.94629e-74 2.45751e-74 6.62853e-75 1.75601e-75 4.57025e-76 1.16887e-76 2.9384e-77 7.2614e-78 1.75999e-78 3.99051e-79 0 
0 8.45679e-112 6.35351e-111 4.64465e-110 3.36036e-109 2.40659e-108 1.70594e-107 1.19683e-106 8.30921e-106 5.70831e-105 3.87998e-104 2.60905e-103 1.73548e-102 1.14182e-101 7.42955e-101 4.78048e-100 3.0414e-99 1.91302e-98 1.18948e-97 7.31026e-97 4.44012e-96 2.66495e-95 1.58037e-94 9.25862e-94 5.35791e-93 3.06228e-92 1.72837e-91 9.6318e-91 5.29899e-90 2.8776e-89 1.54224e-88 8.15628e-88 4.25578e-87 2.1905e-86 1.11202e-85 5.56692e-85 2.74771e-84 1.33692e-83 6.41114e-83 3.02959e-82 1.41047e-81 6.46837e-81 2.92136e-80 1.29911e-79 5.68703e-79 2.45025e-78 1.03878e-77 4.33238e-77 1.77712e-76 7.1679e-76 2.84213e-75 1.10755e-74 4.24071e-74 1.59498e-73 5.89104e-73 2.13614e-72 7.6023e-72 2.65466e-71 9.09266e-71 3.05391e-70 1.00547e-69 3.24404e-69 1.02533e-68 3.17361e-68 9.61623e-68 2.85142e-67 8.27111e-67 2.34612e-66 6.5051e-66 1.76241e-65 4.66373e-65 1.20492e-64 3.03812e-64 7.4729e-64 1.79237e-63 4.19016e-63 9.54363e-63 2.11683e-62 4.57042e-62 9.60146e-62 1.96173e-61 3.89652e-61 7.52084e-61 1.41004e-60 2.56683e-60 4.53529e-60 7.77499e-60 1.29283e-59 2.08454e-59 3.25834e-59 4.93652e-59 7.24815e-59 1.03131e-58 1.42209e-58 1.90058e-58 2.46251e-58 3.09431e-58 3.77293e-58 4.4672e-58 5.14099e-58 5.75759e-58 6.28481e-58 6.69961e-58 6.99158e-58 7.16455e-58 7.23591e-58 7.23409e-58 7.19444e-58 7.15427e-58 7.14786e-58 7.20203e-58 7.33287e-58 7.54408e-58 7.82703e-58 8.16267e-58 8.52488e-58 8.88486e-58 9.21573e-58 9.49653e-58 9.71516e-58 9.86941e-58 9.96645e-58 1.00206e-57 1.00503e-57 1.00746e-57 1.01102e-57 1.01691e-57 1.02575e-57 1.0376e-57 1.05198e-57 1.06804e-57 1.0847e-57 1.10072e-57 1.11481e-57 1.12573e-57 1.13228e-57 1.13341e-57 1.12827e-57 1.11637e-57 1.09758e-57 1.07222e-57 1.04107e-57 1.00523e-57 9.66075e-58 9.25064e-58 8.83673e-58 8.43298e-58 8.05244e-58 7.70719e-58 7.40842e-58 7.16611e-58 6.98822e-58 6.87963e-58 6.84082e-58 6.86706e-58 6.94832e-58 7.07019e-58 7.21567e-58 7.36765e-58 7.51136e-58 7.63642e-58 7.73796e-58 7.81681e-58 7.87857e-58 7.93199e-58 7.98684e-58 8.05164e-58 8.13175e-58 8.22794e-58 8.33602e-58 8.44738e-58 8.55069e-58 8.63441e-58 8.68957e-58 8.71242e-58 8.70619e-58 8.68153e-58 8.65549e-58 8.64907e-58 8.68376e-58 8.77767e-58 8.94201e-58 9.17849e-58 9.47812e-58 9.82168e-58 1.01817e-57 1.05257e-57 1.08198e-57 1.10323e-57 1.11371e-57 1.11151e-57 1.09557e-57 1.06561e-57 1.02208e-57 9.66027e-58 8.99027e-58 8.23079e-58 7.40537e-58 6.54024e-58 5.66318e-58 4.80195e-58 3.98244e-58 3.22677e-58 2.5517e-58 1.96762e-58 1.47828e-58 1.08141e-58 7.69853e-59 5.33109e-59 3.58982e-59 2.35004e-59 1.49539e-59 9.24868e-60 5.5596e-60 3.24838e-60 1.84499e-60 1.0188e-60 5.47052e-61 2.85703e-61 1.45162e-61 7.17739e-62 3.45448e-62 1.61897e-62 7.39063e-63 3.28743e-63 1.42534e-63 6.02589e-64 2.48498e-64 9.99961e-65 3.92789e-65 1.50665e-65 5.64545e-66 2.06717e-66 7.39949e-67 2.59017e-67 8.86966e-68 2.97228e-68 9.75039e-69 3.1322e-69 9.8563e-70 3.03917e-70 9.18563e-71 2.72213e-71 7.91203e-72 2.25617e-72 6.31374e-73 1.73442e-73 4.67839e-74 1.23945e-74 3.22599e-75 8.25113e-76 2.07436e-76 5.12653e-77 1.24263e-77 2.81767e-78 0 
0 5.94052e-111 4.46214e-110 3.26129e-109 2.35901e-108 1.6891e-107 1.19709e-106 8.39663e-106 5.82834e-105 4.00318e-104 2.72045e-103 1.82897e-102 1.21636e-101 8.00115e-101 5.20518e-100 3.3486e-99 2.13002e-98 1.33952e-97 8.32738e-97 5.1169e-96 3.10737e-95 1.86471e-94 1.10562e-93 6.47621e-93 3.74713e-92 2.1413e-91 1.20837e-90 6.73292e-90 3.70359e-89 2.01092e-88 1.07759e-87 5.69811e-87 2.97274e-86 1.5299e-85 7.76561e-85 3.88705e-84 1.91832e-83 9.3326e-83 4.4749e-82 2.11437e-81 9.84274e-81 4.51336e-80 2.0382e-79 9.06285e-79 3.96702e-78 1.70904e-77 7.24483e-77 3.02132e-76 1.23924e-75 4.99804e-75 1.98164e-74 7.72179e-74 2.95644e-73 1.11189e-72 4.10658e-72 1.48902e-71 5.29909e-71 1.85034e-70 6.33759e-70 2.12854e-69 7.00789e-69 2.261e-68 7.14623e-68 2.21191e-67 6.70226e-67 1.98739e-66 5.7649e-66 1.63526e-65 4.53421e-65 1.22848e-64 3.25094e-64 8.39947e-64 2.11795e-63 5.20979e-63 1.24962e-62 2.9215e-62 6.65444e-62 1.47608e-61 3.18717e-61 6.69596e-61 1.36818e-60 2.71773e-60 5.24595e-60 9.83593e-60 1.79065e-59 3.16405e-59 5.42456e-59 9.02053e-59 1.45453e-58 2.2737e-58 3.44493e-58 5.05833e-58 7.19765e-58 9.92531e-58 1.32654e-57 1.71882e-57 2.1599e-57 2.6337e-57 3.11846e-57 3.58897e-57 4.01963e-57 4.38795e-57 4.67784e-57 4.88205e-57 5.0032e-57 5.05342e-57 5.05253e-57 5.02514e-57 4.99726e-57 4.99279e-57 5.0304e-57 5.12134e-57 5.26819e-57 5.46497e-57 5.69842e-57 5.95039e-57 6.20084e-57 6.43106e-57 6.62647e-57 6.77865e-57 6.88605e-57 6.95366e-57 6.99143e-57 7.01217e-57 7.02914e-57 7.05393e-57 7.09491e-57 7.15642e-57 7.23877e-57 7.33873e-57 7.4504e-57 7.56618e-57 7.67751e-57 7.77552e-57 7.85144e-57 7.89698e-57 7.90482e-57 7.86917e-57 7.78643e-57 7.65577e-57 7.47947e-57 7.2628e-57 7.01353e-57 6.74111e-57 6.45577e-57 6.16772e-57 5.88672e-57 5.62181e-57 5.38144e-57 5.17339e-57 5.00463e-57 4.88073e-57 4.80509e-57 4.77807e-57 4.79639e-57 4.85305e-57 4.93802e-57 5.03945e-57 5.14541e-57 5.2456e-57 5.33279e-57 5.40357e-57 5.45851e-57 5.50152e-57 5.5387e-57 5.57683e-57 5.62189e-57 5.67759e-57 5.7445e-57 5.81969e-57 5.89718e-57 5.96909e-57 6.02739e-57 6.06582e-57 6.08179e-57 6.0775e-57 6.06038e-57 6.04228e-57 6.0378e-57 6.06188e-57 6.12714e-57 6.24136e-57 6.40573e-57 6.61402e-57 6.85285e-57 7.10316e-57 7.3423e-57 7.54671e-57 7.69441e-57 7.76715e-57 7.75175e-57 7.64072e-57 7.43209e-57 7.12894e-57 6.73858e-57 6.27188e-57 5.74274e-57 5.16751e-57 4.56446e-57 3.95292e-57 3.35227e-57 2.78056e-57 2.25326e-57 1.7821e-57 1.37435e-57 1.03268e-57 7.55524e-58 5.37906e-58 3.72522e-58 2.50866e-58 1.64237e-58 1.04514e-58 6.46421e-59 3.8859e-59 2.27051e-59 1.2896e-59 7.12112e-60 3.82373e-60 1.99695e-60 1.0146e-60 5.01648e-61 2.41436e-61 1.13148e-61 5.16501e-62 2.29737e-62 9.96037e-63 4.21077e-63 1.73639e-63 6.987e-64 2.74443e-64 1.05266e-64 3.94423e-65 1.4442e-65 5.16942e-66 1.8095e-66 6.19627e-67 2.07638e-67 6.81137e-68 2.18806e-68 6.8853e-69 2.12308e-69 6.41686e-70 1.90164e-70 5.52732e-71 1.57619e-71 4.41098e-72 1.21176e-72 3.2687e-73 8.66013e-74 2.25413e-74 5.76571e-75 1.4496e-75 3.58273e-76 8.68484e-77 1.96941e-77 0 
0 4.12956e-110 3.10122e-109 2.26614e-108 1.63884e-107 1.1732e-106 8.31294e-106 5.82966e-105 4.04572e-104 2.77823e-103 1.88764e-102 1.26882e-101 8.43664e-101 5.54854e-100 3.60894e-99 2.32127e-98 1.47628e-97 9.28228e-97 5.76946e-96 3.54452e-95 2.15213e-94 1.29125e-93 7.6548e-93 4.48309e-92 2.59349e-91 1.48182e-90 8.36084e-90 4.65786e-89 2.56177e-88 1.39075e-87 7.45154e-87 3.93969e-86 2.05509e-85 1.0575e-84 5.36704e-84 2.68612e-83 1.32548e-82 6.44769e-82 3.09126e-81 1.46045e-80 6.79791e-80 3.11685e-79 1.40741e-78 6.25747e-78 2.7388e-77 1.17981e-76 5.00097e-76 2.08541e-75 8.55303e-75 3.44935e-74 1.36753e-73 5.32851e-73 2.04003e-72 7.67204e-72 2.83343e-71 1.02735e-70 3.656e-70 1.27658e-69 4.37231e-69 1.46846e-68 4.83466e-68 1.55984e-67 4.93011e-67 1.52599e-66 4.62393e-66 1.37114e-65 3.97741e-65 1.12826e-64 3.12852e-64 8.47657e-64 2.24326e-63 5.7962e-63 1.46161e-62 3.59549e-62 8.62465e-62 2.01648e-61 4.59334e-61 1.01895e-60 2.20029e-60 4.62294e-60 9.44665e-60 1.87661e-59 3.62261e-59 6.79272e-59 1.23671e-58 2.1854e-58 3.74698e-58 6.23129e-58 1.00484e-57 1.57084e-57 2.38014e-57 3.49504e-57 4.97344e-57 6.85851e-57 9.16699e-57 1.18783e-56 1.49271e-56 1.82022e-56 2.15534e-56 2.48065e-56 2.77845e-56 3.0332e-56 3.23378e-56 3.37518e-56 3.45919e-56 3.49419e-56 3.49382e-56 3.47508e-56 3.45592e-56 3.45282e-56 3.47867e-56 3.54124e-56 3.64231e-56 3.77779e-56 3.93854e-56 4.11207e-56 4.28457e-56 4.44316e-56 4.57779e-56 4.68265e-56 4.75668e-56 4.80331e-56 4.82939e-56 4.84373e-56 4.85546e-56 4.87256e-56 4.90078e-56 4.94313e-56 4.99981e-56 5.0686e-56 5.14545e-56 5.22512e-56 5.30173e-56 5.36918e-56 5.42144e-56 5.4528e-56 5.45822e-56 5.4337e-56 5.37676e-56 5.28683e-56 5.16547e-56 5.01629e-56 4.84464e-56 4.65702e-56 4.46047e-56 4.26203e-56 4.0684e-56 3.88584e-56 3.72016e-56 3.57674e-56 3.46039e-56 3.37496e-56 3.3228e-56 3.30418e-56 3.31684e-56 3.35595e-56 3.4146e-56 3.48461e-56 3.55775e-56 3.62691e-56 3.68708e-56 3.73592e-56 3.77382e-56 3.80347e-56 3.82907e-56 3.85533e-56 3.88633e-56 3.92468e-56 3.97074e-56 4.02253e-56 4.07592e-56 4.12547e-56 4.16566e-56 4.19218e-56 4.20321e-56 4.2003e-56 4.18853e-56 4.17607e-56 4.17297e-56 4.18952e-56 4.23441e-56 4.31299e-56 4.4261e-56 4.56944e-56 4.73381e-56 4.90607e-56 5.07066e-56 5.21133e-56 5.31295e-56 5.36296e-56 5.35227e-56 5.2757e-56 5.13188e-56 4.92289e-56 4.65375e-56 4.33192e-56 3.96694e-56 3.57007e-56 3.15389e-56 2.73174e-56 2.31699e-56 1.92212e-56 1.55784e-56 1.23226e-56 9.5044e-57 7.14242e-57 5.22606e-57 3.72113e-57 2.57726e-57 1.73572e-57 1.13641e-57 7.23203e-58 4.4732e-58 2.68909e-58 1.57124e-58 8.92435e-59 4.92798e-59 2.64607e-59 1.38189e-59 7.02087e-60 3.4712e-60 1.67058e-60 7.82874e-61 3.57355e-61 1.58942e-61 6.89071e-62 2.91293e-62 1.20114e-62 4.83303e-63 1.89829e-63 7.28083e-64 2.72795e-64 9.98818e-65 3.57508e-65 1.25138e-65 4.28499e-66 1.43587e-66 4.71017e-67 1.51306e-67 4.76119e-68 1.4681e-68 4.43725e-69 1.31499e-69 3.8222e-70 1.08997e-70 3.05035e-71 8.37998e-72 2.26055e-72 5.98933e-73 1.55902e-73 3.98789e-74 1.00268e-74 2.47828e-75 6.00792e-76 1.36246e-76 0 
0 2.84053e-109 2.13275e-108 1.55813e-107 1.12658e-106 8.06322e-106 5.71219e-105 4.00501e-104 2.77887e-103 1.9079e-102 1.29605e-101 8.71002e-101 5.79035e-100 3.80743e-99 2.47601e-98 1.59228e-97 1.01247e-96 6.36489e-96 3.95544e-95 2.42964e-94 1.47495e-93 8.84808e-93 5.24445e-92 3.07095e-91 1.77628e-90 1.01474e-89 5.72456e-89 3.1887e-88 1.7535e-87 9.51812e-87 5.09902e-86 2.69553e-85 1.4059e-84 7.23348e-84 3.67071e-83 1.83691e-82 9.06329e-82 4.40825e-81 2.11325e-80 9.9829e-80 4.64624e-79 2.1301e-78 9.61756e-78 4.27569e-77 1.87125e-76 8.06027e-76 3.41634e-75 1.42452e-74 5.84211e-74 2.35593e-73 9.33979e-73 3.63904e-72 1.39315e-71 5.23911e-71 1.93484e-70 7.0152e-70 2.49643e-69 8.71672e-69 2.98547e-68 1.00268e-67 3.30116e-67 1.06508e-66 3.36639e-66 1.042e-65 3.15745e-65 9.36305e-65 2.71614e-64 7.70506e-64 2.1366e-63 5.7893e-63 1.53218e-62 3.9591e-62 9.9841e-62 2.4562e-61 5.8922e-61 1.37772e-60 3.13853e-60 6.96281e-60 1.50364e-59 3.15948e-59 6.4567e-59 1.28275e-58 2.47641e-58 4.64386e-58 8.45547e-58 1.49429e-57 2.56222e-57 4.26131e-57 6.87212e-57 1.07437e-56 1.62799e-56 2.3907e-56 3.40215e-56 4.6919e-56 6.27142e-56 8.12664e-56 1.02129e-55 1.24542e-55 1.47478e-55 1.69745e-55 1.90131e-55 2.07575e-55 2.21315e-55 2.31007e-55 2.36774e-55 2.39187e-55 2.39179e-55 2.3791e-55 2.36605e-55 2.36392e-55 2.3815e-55 2.42411e-55 2.49298e-55 2.58531e-55 2.69488e-55 2.81318e-55 2.9308e-55 3.03893e-55 3.13075e-55 3.20228e-55 3.2528e-55 3.28463e-55 3.30245e-55 3.31226e-55 3.32029e-55 3.33196e-55 3.3512e-55 3.38007e-55 3.41868e-55 3.46554e-55 3.51789e-55 3.57216e-55 3.62435e-55 3.6703e-55 3.70591e-55 3.72729e-55 3.73099e-55 3.7143e-55 3.67552e-55 3.61426e-55 3.53155e-55 3.42988e-55 3.31287e-55 3.18496e-55 3.05094e-55 2.91561e-55 2.78354e-55 2.659e-55 2.54596e-55 2.44809e-55 2.36868e-55 2.31036e-55 2.27477e-55 2.26206e-55 2.27072e-55 2.29745e-55 2.33753e-55 2.38537e-55 2.43534e-55 2.48259e-55 2.5237e-55 2.55706e-55 2.58294e-55 2.60317e-55 2.62063e-55 2.63851e-55 2.65963e-55 2.68576e-55 2.71716e-55 2.75247e-55 2.78887e-55 2.82268e-55 2.85011e-55 2.86821e-55 2.87577e-55 2.8738e-55 2.86579e-55 2.8573e-55 2.85518e-55 2.86643e-55 2.89699e-55 2.95052e-55 3.02756e-55 3.12521e-55 3.23719e-55 3.35455e-55 3.46668e-55 3.56251e-55 3.63173e-55 3.66576e-55 3.65841e-55 3.60614e-55 3.508e-55 3.36538e-55 3.18169e-55 2.96199e-55 2.71278e-55 2.44172e-55 2.15739e-55 1.86891e-55 1.5854e-55 1.31541e-55 1.06627e-55 8.43543e-56 6.50707e-56 4.89056e-56 3.57879e-56 2.54847e-56 1.76522e-56 1.18892e-56 7.78457e-57 4.95426e-57 3.06445e-57 1.84225e-57 1.07644e-57 6.11398e-58 3.37607e-58 1.81274e-58 9.46663e-59 4.8095e-59 2.37777e-59 1.1443e-59 5.3622e-60 2.44754e-60 1.08854e-60 4.71896e-61 1.99475e-61 8.2249e-62 3.30926e-62 1.29972e-62 4.98481e-63 1.8676e-63 6.83775e-64 2.44734e-64 8.56608e-65 2.9331e-65 9.82835e-66 3.22396e-66 1.03562e-66 3.25876e-67 1.00482e-67 3.03699e-68 9.00017e-69 2.61603e-69 7.46014e-70 2.0878e-70 5.73575e-71 1.54729e-71 4.09967e-72 1.06718e-72 2.7299e-73 6.86409e-74 1.69666e-74 4.1133e-75 9.32852e-76 0 