# vtk DataFile Version 3.0
Gray-Scott Simulation Output
ASCII
DATASET STRUCTURED_POINTS
DIMENSIONS 256 256 1
SPACING 1.0 1.0 1.0
ORIGIN 0 0 0
POINT_DATA 65536
SCALARS u double
LOOKUP_TABLE default
0 0 0 0 0 0 0 0 0 0 0 0 0 0 0 0 0 0 0 0 0 0 0 0 0 0 0 0 0 0 0 0 0 0 0 0 0 0 0 0 0 0 0 0 0 0 0 0 0 0 0 0 0 0 0 0 0 0 0 0 0 0 0 0 0 0 0 0 0 0 0 0 0 0 0 0 0 0 0 0 0 0 0 0 0 0 0 0 0 0 0 0 0 0 0 0 0 0 0 0 0 0 0 0 0 0 0 0 0 0 0 0 0 0 0 0 0 0 0 0 0 0 0 0 0 0 0 0 0 0 0 0 0 0 0 0 0 0 0 0 0 0 0 0 0 0 0 0 0 0 0 0 0 0 0 0 0 0 0 0 0 0 0 0 0 0 0 0 0 0 0 0 0 0 0 0 0 0 0 0 0 0 0 0 0 0 0 0 0 0 0 0 0 0 0 0 0 0 0 0 0 0 0 0 0 0 0 0 0 0 0 0 0 0 0 0 0 0 0 0 0 0 0 0 0 0 0 0 0 0 0 0 0 0 0 0 0 0 0 0 0 0 0 0 0 0 0 0 0 0 0 0 0 0 0 0 
0 1.20351e-81 4.76575e-81 1.75471e-80 6.37683e-80 2.29657e-79 8.1984e-79 2.90091e-78 1.01734e-77 3.53585e-77 1.21784e-76 4.15651e-76 1.40564e-75 4.70975e-75 1.5634e-74 5.1411e-74 1.67466e-73 5.40319e-73 1.7266e-72 5.46412e-72 1.71238e-71 5.31373e-71 1.63261e-70 4.96609e-70 1.49541e-69 4.45741e-69 1.31506e-68 3.83985e-68 1.10956e-67 3.17259e-67 8.97568e-67 2.51231e-66 6.95649e-66 1.90537e-65 5.16179e-65 1.38296e-64 3.66413e-64 9.59923e-64 2.48637e-63 6.36672e-63 1.61155e-62 4.03183e-62 9.96895e-62 2.43578e-61 5.88063e-61 1.40268e-60 3.3052e-60 7.69293e-60 1.76845e-59 4.01471e-59 8.99965e-59 1.99186e-58 4.35214e-58 9.38659e-58 1.99813e-57 4.1976e-57 8.70137e-57 1.77964e-56 3.59073e-56 7.14643e-56 1.40281e-55 2.71557e-55 5.18349e-55 9.75514e-55 1.80985e-54 3.30976e-54 5.96552e-54 1.05961e-53 1.85456e-53 3.19804e-53 5.43286e-53 9.09135e-53 1.49843e-52 2.43228e-52 3.88789e-52 6.11927e-52 9.4827e-52 1.44669e-51 2.17271e-51 3.21202e-51 4.6739e-51 6.694e-51 9.4358e-51 1.30902e-50 1.78725e-50 2.40156e-50 3.17599e-50 4.13387e-50 5.29604e-50 6.67879e-50 8.2917e-50 1.01356e-49 1.22008e-49 1.44664e-49 1.68995e-49 1.94565e-49 2.20853e-49 2.47275e-49 2.73227e-49 2.98127e-49 3.21457e-49 3.428e-49 3.61872e-49 3.78539e-49 3.92819e-49 4.04874e-49 4.14982e-49 4.23507e-49 4.30854e-49 4.37432e-49 4.43613e-49 4.49703e-49 4.55923e-49 4.62396e-49 4.6916e-49 4.76172e-49 4.83333e-49 4.9051e-49 4.97566e-49 5.04373e-49 5.10833e-49 5.16889e-49 5.2252e-49 5.27741e-49 5.3259e-49 5.37116e-49 5.41362e-49 5.45355e-49 5.49092e-49 5.52534e-49 5.55605e-49 5.58196e-49 5.60169e-49 5.61372e-49 5.61645e-49 5.60843e-49 5.58844e-49 5.55561e-49 5.50955e-49 5.45043e-49 5.37898e-49 5.2965e-49 5.20483e-49 5.10629e-49 5.00351e-49 4.89936e-49 4.79681e-49 4.69872e-49 4.60773e-49 4.52614e-49 4.45576e-49 4.39784e-49 4.35303e-49 4.32138e-49 4.30238e-49 4.29503e-49 4.29795e-49 4.30952e-49 4.32804e-49 4.35181e-49 4.37929e-49 4.40914e-49 4.44031e-49 4.47199e-49 4.5036e-49 4.53479e-49 4.56532e-49 4.59507e-49 4.62397e-49 4.65201e-49 4.67927e-49 4.70591e-49 4.73225e-49 4.75879e-49 4.78619e-49 4.81526e-49 4.84687e-49 4.88187e-49 4.92092e-49 4.96433e-49 5.01187e-49 5.06271e-49 5.11523e-49 5.16707e-49 5.2151e-49 5.25559e-49 5.28435e-49 5.29694e-49 5.28897e-49 5.25635e-49 5.19556e-49 5.10386e-49 4.97953e-49 4.82197e-49 4.6318e-49 4.41087e-49 4.16217e-49 3.88978e-49 3.59862e-49 3.29428e-49 2.98273e-49 2.67006e-49 2.36219e-49 2.0646e-49 1.78212e-49 1.51871e-49 1.27737e-49 1.0601e-49 8.6785e-50 7.00672e-50 5.57781e-50 4.37733e-50 3.38594e-50 2.58114e-50 1.93888e-50 1.435e-50 1.04636e-50 7.51628e-51 5.31864e-51 3.70729e-51 2.54544e-51 1.72153e-51 1.14687e-51 7.52612e-52 4.86513e-52 3.09813e-52 1.94361e-52 1.20127e-52 7.3152e-53 4.38925e-53 2.59518e-53 1.51213e-53 8.68341e-54 4.91485e-54 2.74213e-54 1.50821e-54 8.17857e-55 4.37294e-55 2.30566e-55 1.19891e-55 6.14888e-56 3.11074e-56 1.55253e-56 7.64482e-57 3.71446e-57 1.78102e-57 8.42825e-58 3.93682e-58 1.81526e-58 8.26336e-59 3.71368e-59 1.647e-59 7.18679e-60 3.03131e-60 1.10203e-60 0 
0 4.76697e-81 1.88786e-80 6.95179e-80 2.5267e-79 9.10096e-79 3.24936e-78 1.14991e-77 4.0333e-77 1.40203e-76 4.82973e-76 1.64866e-75 5.57634e-75 1.86874e-74 6.20436e-74 2.04063e-73 6.64839e-73 2.14547e-72 6.85727e-72 2.17054e-71 6.80361e-71 2.1117e-70 6.48949e-70 1.97442e-69 5.94684e-69 1.77301e-68 5.23217e-68 1.52812e-67 4.41675e-67 1.26322e-66 3.57478e-66 1.00086e-65 2.77211e-65 7.5949e-65 2.05811e-64 5.51578e-64 1.46183e-63 3.83085e-63 9.92568e-63 2.54243e-62 6.43747e-62 1.61108e-61 3.98482e-61 9.73968e-61 2.35223e-60 5.61262e-60 1.32299e-59 3.08039e-59 7.08377e-59 1.60873e-58 3.60757e-58 7.98747e-58 1.74589e-57 3.76692e-57 8.02172e-57 1.68582e-56 3.49594e-56 7.15278e-56 1.44375e-55 2.87453e-55 5.64474e-55 1.09313e-54 2.08737e-54 3.92985e-54 7.2937e-54 1.33433e-53 2.40589e-53 4.27495e-53 7.48481e-53 1.29115e-52 2.19416e-52 3.67293e-52 6.05567e-52 9.83271e-52 1.57218e-51 2.47522e-51 3.83675e-51 5.85491e-51 8.79529e-51 1.30054e-50 1.89284e-50 2.71144e-50 3.82266e-50 5.30392e-50 7.24249e-50 9.73282e-50 1.28723e-49 1.67554e-49 2.14664e-49 2.7071e-49 3.36076e-49 4.10788e-49 4.94448e-49 5.86194e-49 6.84687e-49 7.88154e-49 8.94462e-49 1.00124e-48 1.10605e-48 1.20651e-48 1.30053e-48 1.38642e-48 1.46305e-48 1.52987e-48 1.58698e-48 1.63505e-48 1.67522e-48 1.70898e-48 1.73797e-48 1.76387e-48 1.78818e-48 1.81216e-48 1.8367e-48 1.8623e-48 1.88912e-48 1.91698e-48 1.94548e-48 1.97408e-48 2.00223e-48 2.02939e-48 2.05519e-48 2.07938e-48 2.10188e-48 2.12274e-48 2.14211e-48 2.1602e-48 2.17718e-48 2.19316e-48 2.20811e-48 2.2219e-48 2.23421e-48 2.2446e-48 2.25253e-48 2.25738e-48 2.25851e-48 2.25533e-48 2.24736e-48 2.23424e-48 2.21583e-48 2.19217e-48 2.16357e-48 2.13055e-48 2.09384e-48 2.05438e-48 2.01321e-48 1.9715e-48 1.93043e-48 1.89114e-48 1.85471e-48 1.82204e-48 1.79387e-48 1.77069e-48 1.75277e-48 1.74012e-48 1.73254e-48 1.72963e-48 1.73082e-48 1.73548e-48 1.74291e-48 1.75243e-48 1.76343e-48 1.77538e-48 1.78785e-48 1.80051e-48 1.81314e-48 1.8256e-48 1.8378e-48 1.84968e-48 1.86123e-48 1.87243e-48 1.88332e-48 1.89397e-48 1.90449e-48 1.9151e-48 1.92605e-48 1.93767e-48 1.95031e-48 1.96432e-48 1.97996e-48 1.99736e-48 2.01643e-48 2.03684e-48 2.05795e-48 2.07881e-48 2.09818e-48 2.11454e-48 2.12623e-48 2.13146e-48 2.12846e-48 2.11559e-48 2.09142e-48 2.05485e-48 2.00517e-48 1.94213e-48 1.86597e-48 1.7774e-48 1.67763e-48 1.56827e-48 1.45129e-48 1.32894e-48 1.20361e-48 1.07776e-48 9.53769e-49 8.33852e-49 7.19961e-49 6.13706e-49 5.16312e-49 4.28588e-49 3.5094e-49 2.83391e-49 2.25636e-49 1.771e-49 1.37007e-49 1.04453e-49 7.84681e-50 5.80789e-50 4.23505e-50 3.04218e-50 2.15265e-50 1.50042e-50 1.03013e-50 6.96639e-51 4.64048e-51 3.04484e-51 1.96801e-51 1.25303e-51 7.85948e-52 4.85672e-52 2.95691e-52 1.77381e-52 1.04853e-52 6.10794e-53 3.50659e-53 1.98422e-53 1.10674e-53 6.08552e-54 3.29902e-54 1.7634e-54 9.29483e-55 4.8317e-55 2.47726e-55 1.25286e-55 6.25082e-56 3.07698e-56 1.49456e-56 7.16383e-57 3.389e-57 1.58248e-57 7.29439e-58 3.31945e-58 1.49133e-58 6.61186e-59 2.88422e-59 1.21618e-59 4.42042e-60 0 
0 1.75567e-80 6.95382e-80 2.56102e-79 9.30972e-79 3.35382e-78 1.19762e-77 4.23897e-77 1.48707e-76 5.17017e-76 1.78136e-75 6.08193e-75 2.05752e-74 6.89654e-74 2.29018e-73 7.53405e-73 2.45514e-72 7.92466e-72 2.53343e-71 8.021e-71 2.51481e-70 7.8074e-70 2.39992e-69 7.30365e-69 2.2004e-68 6.56217e-68 1.93704e-67 5.65901e-67 1.63612e-66 4.68082e-66 1.32503e-65 3.71095e-65 1.02816e-64 2.81785e-64 7.63851e-64 2.04784e-63 5.42921e-63 1.42328e-62 3.68903e-62 9.45277e-62 2.39436e-61 5.99453e-61 1.48325e-60 3.62678e-60 8.76251e-60 2.09166e-59 4.93241e-59 1.14892e-58 2.64319e-58 6.00526e-58 1.34725e-57 2.98422e-57 6.5257e-57 1.4086e-56 3.00096e-56 6.30952e-56 1.30901e-55 2.67947e-55 5.4108e-55 1.07778e-54 2.11739e-54 4.10225e-54 7.83688e-54 1.47608e-53 2.74077e-53 5.01623e-53 9.04845e-53 1.60847e-52 2.81736e-52 4.86198e-52 8.26568e-52 1.38417e-51 2.28298e-51 3.70826e-51 5.93133e-51 9.34128e-51 1.44842e-50 2.21096e-50 3.32225e-50 4.91381e-50 7.1534e-50 1.02493e-49 1.44525e-49 2.00561e-49 2.73904e-49 3.68127e-49 4.86914e-49 6.33834e-49 8.12067e-49 1.02408e-48 1.27131e-48 1.55383e-48 1.87009e-48 2.21679e-48 2.58882e-48 2.97943e-48 3.38052e-48 3.78308e-48 4.17781e-48 4.55578e-48 4.90904e-48 5.23125e-48 5.51812e-48 5.76769e-48 5.98035e-48 6.1587e-48 6.30712e-48 6.43129e-48 6.53751e-48 6.63211e-48 6.72086e-48 6.80849e-48 6.89838e-48 6.99247e-48 7.09132e-48 7.19426e-48 7.29978e-48 7.40585e-48 7.51033e-48 7.61128e-48 7.70719e-48 7.79714e-48 7.88082e-48 7.95843e-48 8.03053e-48 8.09786e-48 8.16109e-48 8.2206e-48 8.27636e-48 8.32779e-48 8.37376e-48 8.41262e-48 8.44232e-48 8.46053e-48 8.4649e-48 8.4532e-48 8.42361e-48 8.37481e-48 8.30622e-48 8.21807e-48 8.11144e-48 7.9883e-48 7.85139e-48 7.70416e-48 7.55059e-48 7.39497e-48 7.24173e-48 7.09518e-48 6.95927e-48 6.83744e-48 6.7324e-48 6.64602e-48 6.57927e-48 6.53221e-48 6.50405e-48 6.4933e-48 6.49786e-48 6.51532e-48 6.5431e-48 6.57866e-48 6.61969e-48 6.66421e-48 6.71063e-48 6.75776e-48 6.80477e-48 6.85112e-48 6.89649e-48 6.94069e-48 6.98363e-48 7.02531e-48 7.06583e-48 7.10544e-48 7.14461e-48 7.18407e-48 7.22482e-48 7.26808e-48 7.31518e-48 7.36741e-48 7.42576e-48 7.49072e-48 7.56202e-48 7.63841e-48 7.7175e-48 7.79577e-48 7.86857e-48 7.93029e-48 7.97464e-48 7.99496e-48 7.98464e-48 7.93748e-48 7.84813e-48 7.71241e-48 7.52762e-48 7.29276e-48 7.00865e-48 6.67792e-48 6.305e-48 5.89589e-48 5.45794e-48 4.99951e-48 4.52959e-48 4.05736e-48 3.5918e-48 3.14125e-48 2.71307e-48 2.31338e-48 1.94681e-48 1.61647e-48 1.32394e-48 1.06935e-48 8.51586e-49 6.68518e-49 5.1725e-49 3.94391e-49 2.96305e-49 2.19326e-49 1.59935e-49 1.14888e-49 8.12931e-50 5.66593e-50 3.88972e-50 2.63021e-50 1.75183e-50 1.1493e-50 7.42713e-51 4.72798e-51 2.96495e-51 1.83176e-51 1.11496e-51 6.68673e-52 3.95156e-52 2.30122e-52 1.32074e-52 7.47114e-53 4.16586e-53 2.28988e-53 1.24094e-53 6.63082e-54 3.49385e-54 1.81554e-54 9.30503e-55 4.70422e-55 2.34619e-55 1.15448e-55 5.60545e-56 2.68584e-56 1.27011e-56 5.92847e-57 2.73168e-57 1.24263e-57 5.58067e-58 2.47329e-58 1.0785e-58 4.54618e-59 1.65196e-59 0 
0 6.38223e-80 2.52819e-79 9.31252e-79 3.38579e-78 1.21993e-77 4.35701e-77 1.54243e-76 5.41197e-76 1.88196e-75 6.48546e-75 2.21471e-74 7.49392e-74 2.51239e-73 8.34486e-73 2.74584e-72 8.94998e-72 2.88954e-71 9.23979e-71 2.9261e-70 9.17649e-70 2.84964e-69 8.76187e-69 2.66722e-68 8.03793e-68 2.39781e-67 7.08002e-67 2.06903e-66 5.98376e-66 1.71245e-65 4.84911e-65 1.35852e-64 3.76521e-64 1.03227e-63 2.79922e-63 7.50723e-63 1.99104e-62 5.22148e-62 1.35388e-61 3.47052e-61 8.79415e-61 2.20259e-60 5.45216e-60 1.33369e-59 3.22361e-59 7.69817e-59 1.81611e-58 4.23214e-58 9.74073e-58 2.21405e-57 4.96935e-57 1.10123e-56 2.4092e-56 5.20275e-56 1.10894e-55 2.33263e-55 4.84167e-55 9.91527e-55 2.00319e-54 3.99203e-54 7.84637e-54 1.52088e-53 2.90682e-53 5.47755e-53 1.01753e-52 1.86316e-52 3.36235e-52 5.97962e-52 1.04783e-51 1.80905e-51 3.07678e-51 5.15447e-51 8.50487e-51 1.38198e-50 2.21127e-50 3.48376e-50 5.40358e-50 8.25097e-50 1.24018e-49 1.8348e-49 2.67173e-49 3.82888e-49 5.40018e-49 7.4953e-49 1.02378e-48 1.37612e-48 1.82033e-48 2.36973e-48 3.03618e-48 3.82885e-48 4.753e-48 5.8088e-48 6.99035e-48 8.28512e-48 9.67385e-48 1.11311e-47 1.26264e-47 1.4126e-47 1.55949e-47 1.69999e-47 1.83111e-47 1.95049e-47 2.05656e-47 2.14859e-47 2.22676e-47 2.29206e-47 2.34616e-47 2.39119e-47 2.42954e-47 2.46359e-47 2.49551e-47 2.52706e-47 2.55952e-47 2.59362e-47 2.62956e-47 2.66709e-47 2.70565e-47 2.74449e-47 2.78278e-47 2.81981e-47 2.85502e-47 2.88805e-47 2.91878e-47 2.94729e-47 2.97379e-47 2.99854e-47 3.02179e-47 3.04368e-47 3.06421e-47 3.08316e-47 3.10012e-47 3.11447e-47 3.12545e-47 3.13222e-47 3.13388e-47 3.12963e-47 3.11879e-47 3.10086e-47 3.07564e-47 3.04319e-47 3.00393e-47 2.95858e-47 2.90814e-47 2.8539e-47 2.79731e-47 2.73997e-47 2.68351e-47 2.62951e-47 2.57944e-47 2.53457e-47 2.49589e-47 2.4641e-47 2.43954e-47 2.42225e-47 2.41192e-47 2.40801e-47 2.40973e-47 2.4162e-47 2.42646e-47 2.43957e-47 2.45468e-47 2.47107e-47 2.48814e-47 2.50546e-47 2.52274e-47 2.53976e-47 2.55643e-47 2.57266e-47 2.58844e-47 2.60375e-47 2.61863e-47 2.63318e-47 2.64758e-47 2.66208e-47 2.67706e-47 2.69296e-47 2.71029e-47 2.72952e-47 2.75102e-47 2.77498e-47 2.80131e-47 2.82955e-47 2.85882e-47 2.88784e-47 2.91488e-47 2.93789e-47 2.95453e-47 2.96235e-47 2.95889e-47 2.94186e-47 2.90927e-47 2.85956e-47 2.7917e-47 2.70531e-47 2.60066e-47 2.4787e-47 2.34104e-47 2.18989e-47 2.02794e-47 1.85827e-47 1.68422e-47 1.50918e-47 1.33649e-47 1.16925e-47 1.01022e-47 8.61669e-48 7.25354e-48 6.02446e-48 4.9355e-48 3.98735e-48 3.17602e-48 2.49371e-48 1.92974e-48 1.47156e-48 1.10568e-48 8.18482e-49 5.96867e-49 4.28754e-49 3.03373e-49 2.11433e-49 1.45139e-49 9.81321e-50 6.53517e-50 4.28675e-50 2.76975e-50 1.76282e-50 1.10523e-50 6.82657e-51 4.15413e-51 2.49068e-51 1.47146e-51 8.56653e-52 4.91504e-52 2.77941e-52 1.54926e-52 8.51293e-53 4.61172e-53 2.46332e-53 1.29746e-53 6.73956e-54 3.45285e-54 1.74493e-54 8.69928e-55 4.27895e-55 2.07677e-55 9.94683e-56 4.7019e-56 2.19382e-56 1.01045e-56 4.5947e-57 2.06267e-57 9.13796e-58 3.98318e-58 1.67843e-58 6.0973e-59 0 
0 2.29922e-79 9.10913e-79 3.35585e-78 1.2203e-77 4.39759e-77 1.57089e-76 5.56214e-76 1.95197e-75 6.7891e-75 2.34007e-74 7.99272e-74 2.70507e-73 9.07091e-73 3.01356e-72 9.91826e-72 3.23359e-71 1.04423e-70 3.33994e-70 1.05798e-69 3.31879e-69 1.03089e-68 3.17056e-68 9.65433e-68 2.91027e-67 8.68425e-67 2.56498e-66 7.49811e-66 2.16919e-65 6.20989e-65 1.75903e-64 4.92974e-64 1.36678e-63 3.74849e-63 1.01685e-62 2.7281e-62 7.23809e-62 1.89891e-61 4.92562e-61 1.26313e-60 3.20202e-60 8.0231e-60 1.98682e-59 4.86215e-59 1.17572e-58 2.80892e-58 6.62961e-58 1.54561e-57 3.55901e-57 8.09328e-57 1.81735e-56 4.02922e-56 8.81903e-56 1.90541e-55 4.06322e-55 8.55103e-55 1.77574e-54 3.6383e-54 7.35407e-54 1.46626e-53 2.88336e-53 5.59158e-53 1.06922e-52 2.01579e-52 3.7464e-52 6.86314e-52 1.23913e-51 2.2047e-51 3.86513e-51 6.67597e-51 1.13592e-50 1.9038e-50 3.14255e-50 5.10844e-50 8.17701e-50 1.28872e-49 1.9996e-49 3.05428e-49 4.5922e-49 6.79594e-49 9.89844e-49 1.41889e-48 2.0016e-48 2.77867e-48 3.79595e-48 5.10301e-48 6.75088e-48 8.78892e-48 1.12609e-47 1.42008e-47 1.76276e-47 2.15416e-47 2.59204e-47 3.07168e-47 3.58587e-47 4.12511e-47 4.67802e-47 5.23204e-47 5.7742e-47 6.29207e-47 6.77466e-47 7.21325e-47 7.60202e-47 7.9384e-47 8.22313e-47 8.45997e-47 8.65522e-47 8.81688e-47 8.95388e-47 9.07509e-47 9.18858e-47 9.30096e-47 9.41697e-47 9.5393e-47 9.6687e-47 9.80428e-47 9.94391e-47 1.00848e-46 1.02239e-46 1.03585e-46 1.04866e-46 1.06069e-46 1.07188e-46 1.08226e-46 1.09191e-46 1.10093e-46 1.1094e-46 1.11739e-46 1.12488e-46 1.1318e-46 1.13801e-46 1.14326e-46 1.14729e-46 1.14978e-46 1.15041e-46 1.14888e-46 1.14494e-46 1.13841e-46 1.12922e-46 1.11738e-46 1.10305e-46 1.08649e-46 1.06806e-46 1.04825e-46 1.02758e-46 1.00663e-46 9.86001e-47 9.66276e-47 9.47989e-47 9.31602e-47 9.17482e-47 9.0588e-47 8.96926e-47 8.90626e-47 8.86874e-47 8.85461e-47 8.86107e-47 8.88483e-47 8.92238e-47 8.97032e-47 9.02551e-47 9.08529e-47 9.14753e-47 9.21066e-47 9.27357e-47 9.33558e-47 9.39625e-47 9.45537e-47 9.51281e-47 9.56857e-47 9.62278e-47 9.67579e-47 9.72821e-47 9.78104e-47 9.83561e-47 9.89359e-47 9.95679e-47 1.0027e-46 1.01055e-46 1.01932e-46 1.02896e-46 1.03931e-46 1.05006e-46 1.06073e-46 1.07069e-46 1.0792e-46 1.0854e-46 1.08838e-46 1.08725e-46 1.08117e-46 1.0694e-46 1.05135e-46 1.02666e-46 9.95161e-47 9.56951e-47 9.12369e-47 8.61994e-47 8.06626e-47 7.47249e-47 6.84991e-47 6.21068e-47 5.56733e-47 4.93213e-47 4.31654e-47 3.73075e-47 3.18322e-47 2.68049e-47 2.22695e-47 1.82491e-47 1.47469e-47 1.17488e-47 9.22649e-48 7.14097e-48 5.44616e-48 4.09245e-48 3.02963e-48 2.20939e-48 1.58709e-48 1.12295e-48 7.82583e-49 5.37162e-49 3.63148e-49 2.41807e-49 1.58588e-49 1.02447e-49 6.51897e-50 4.08625e-50 2.52327e-50 1.53506e-50 9.20108e-51 5.43423e-51 3.1627e-51 1.814e-51 1.02545e-51 5.71388e-52 3.13855e-52 1.69962e-52 9.07493e-53 4.77803e-53 2.48094e-53 1.27054e-53 6.41823e-54 3.19848e-54 1.5726e-54 7.62944e-55 3.65266e-55 1.72591e-55 8.0495e-56 3.70599e-56 1.68448e-56 7.55897e-57 3.34739e-57 1.45853e-57 6.1437e-58 2.23122e-58 0 
0 8.2104e-79 3.25328e-78 1.19872e-77 4.35969e-77 1.57138e-76 5.61424e-76 1.98824e-75 6.97885e-75 2.42778e-74 8.36981e-74 2.85939e-73 9.67947e-73 3.24654e-72 1.07882e-71 3.55147e-71 1.15815e-70 3.74098e-70 1.19685e-69 3.7922e-69 1.1899e-68 3.69711e-68 1.1374e-67 3.46437e-67 1.04464e-66 3.11815e-66 9.21268e-66 2.69397e-65 7.79618e-65 2.23262e-64 6.32632e-64 1.7736e-63 4.9191e-63 1.34959e-62 3.6624e-62 9.82957e-62 2.60895e-61 6.8473e-61 1.77685e-60 4.55844e-60 1.15604e-59 2.89786e-59 7.17929e-59 1.75769e-58 4.25217e-58 1.01635e-57 2.39988e-57 5.59761e-57 1.28954e-56 2.93385e-56 6.59113e-56 1.46202e-55 3.20158e-55 6.92064e-55 1.47654e-54 3.10892e-54 6.45932e-54 1.32412e-53 2.67777e-53 5.34167e-53 1.05095e-52 2.0391e-52 3.90112e-52 7.35839e-52 1.36825e-51 2.50777e-51 4.52995e-51 8.06365e-51 1.41433e-50 2.444e-50 4.16037e-50 6.9758e-50 1.15197e-49 1.87338e-49 2.99987e-49 4.72969e-49 7.34129e-49 1.12172e-48 1.68709e-48 2.49744e-48 3.63856e-48 5.21697e-48 7.36108e-48 1.02208e-47 1.39649e-47 1.87758e-47 2.48413e-47 3.23428e-47 4.14409e-47 5.22592e-47 6.48672e-47 7.92636e-47 9.53639e-47 1.12992e-46 1.31881e-46 1.51677e-46 1.7196e-46 1.92265e-46 2.12113e-46 2.31047e-46 2.48663e-46 2.64642e-46 2.78771e-46 2.90959e-46 3.01238e-46 3.09749e-46 3.16727e-46 3.22472e-46 3.27312e-46 3.31579e-46 3.3557e-46 3.39529e-46 3.43632e-46 3.47977e-46 3.52592e-46 3.57444e-46 3.62455e-46 3.6752e-46 3.72529e-46 3.77383e-46 3.82004e-46 3.86342e-46 3.90382e-46 3.9413e-46 3.97616e-46 4.00873e-46 4.03937e-46 4.06825e-46 4.09538e-46 4.12046e-46 4.14295e-46 4.16203e-46 4.17669e-46 4.18579e-46 4.18816e-46 4.1827e-46 4.16851e-46 4.14494e-46 4.11168e-46 4.06885e-46 4.01697e-46 3.957e-46 3.89028e-46 3.81851e-46 3.74361e-46 3.66772e-46 3.59299e-46 3.52153e-46 3.4553e-46 3.39596e-46 3.34484e-46 3.30286e-46 3.27048e-46 3.24773e-46 3.2342e-46 3.22915e-46 3.23155e-46 3.24021e-46 3.25384e-46 3.27122e-46 3.29121e-46 3.31283e-46 3.33534e-46 3.35815e-46 3.38087e-46 3.40326e-46 3.42516e-46 3.4465e-46 3.46724e-46 3.48738e-46 3.50696e-46 3.5261e-46 3.54504e-46 3.56412e-46 3.58383e-46 3.60479e-46 3.62765e-46 3.65305e-46 3.68152e-46 3.71331e-46 3.74832e-46 3.78596e-46 3.8251e-46 3.86401e-46 3.90045e-46 3.93166e-46 3.95456e-46 3.96588e-46 3.96233e-46 3.94083e-46 3.89869e-46 3.83379e-46 3.74472e-46 3.63088e-46 3.49257e-46 3.33099e-46 3.1482e-46 2.94708e-46 2.7312e-46 2.50463e-46 2.27181e-46 2.03728e-46 1.80555e-46 1.5808e-46 1.36677e-46 1.16659e-46 9.82673e-47 8.16655e-47 6.69407e-47 5.41076e-47 4.3117e-47 3.38669e-47 2.6216e-47 1.99966e-47 1.50276e-47 1.11256e-47 8.11371e-48 5.82841e-48 4.12377e-48 2.87368e-48 1.97231e-48 1.33322e-48 8.87613e-49 5.82038e-49 3.75921e-49 2.39155e-49 1.49872e-49 9.25226e-50 5.62714e-50 3.37188e-50 1.99083e-50 1.15827e-50 6.64113e-51 3.75288e-51 2.09036e-51 1.14777e-51 6.21312e-52 3.31612e-52 1.74527e-52 9.05838e-53 4.63707e-53 2.34147e-53 1.16636e-53 5.73227e-54 2.77981e-54 1.33029e-54 6.28306e-55 2.92911e-55 1.34799e-55 6.12441e-56 2.74711e-56 1.21601e-56 5.29628e-57 2.23009e-57 8.09672e-58 0 
0 2.90606e-78 1.15166e-77 4.24417e-77 1.54386e-76 5.5656e-76 1.98886e-75 7.04474e-75 2.47325e-74 8.60562e-74 2.96743e-73 1.01399e-72 3.43327e-72 1.1518e-71 3.82834e-71 1.26059e-70 4.11187e-70 1.32853e-69 4.25148e-69 1.34745e-68 4.22914e-68 1.3144e-67 4.04487e-67 1.23239e-66 3.71726e-66 1.10992e-65 3.28036e-65 9.59559e-65 2.77784e-64 7.95775e-64 2.2557e-63 6.32619e-63 1.75523e-62 4.81742e-62 1.30781e-61 3.51143e-61 9.32374e-61 2.44805e-60 6.35525e-60 1.63111e-59 4.13834e-59 1.03782e-58 2.57228e-58 6.3005e-58 1.52491e-57 3.64652e-57 8.6145e-57 2.01026e-56 4.63335e-56 1.05466e-55 2.37055e-55 5.26089e-55 1.15263e-54 2.49283e-54 5.32127e-54 1.12099e-53 2.33027e-53 4.77939e-53 9.67045e-53 1.93009e-52 3.79935e-52 7.37549e-52 1.41178e-51 2.66432e-51 4.9567e-51 9.08938e-51 1.6427e-50 2.92558e-50 5.13384e-50 8.87565e-50 1.51159e-49 2.53567e-49 4.18921e-49 6.81557e-49 1.09184e-48 1.7221e-48 2.674e-48 4.08723e-48 6.14928e-48 9.10573e-48 1.32701e-47 1.90315e-47 2.68593e-47 3.73012e-47 5.0974e-47 6.85439e-47 9.06959e-47 1.18091e-46 1.51315e-46 1.90815e-46 2.36839e-46 2.89377e-46 3.48112e-46 4.12393e-46 4.8123e-46 5.53328e-46 6.27139e-46 7.0096e-46 7.73038e-46 8.417e-46 9.05473e-46 9.63198e-46 1.01411e-45 1.05789e-45 1.09466e-45 1.12496e-45 1.14965e-45 1.16985e-45 1.18676e-45 1.20161e-45 1.21548e-45 1.22927e-45 1.24363e-45 1.2589e-45 1.2752e-45 1.2924e-45 1.31022e-45 1.32827e-45 1.34615e-45 1.36349e-45 1.38002e-45 1.39554e-45 1.40999e-45 1.42341e-45 1.43589e-45 1.44756e-45 1.45854e-45 1.4689e-45 1.47864e-45 1.48765e-45 1.49574e-45 1.50261e-45 1.5079e-45 1.51119e-45 1.51208e-45 1.51015e-45 1.50508e-45 1.49664e-45 1.48472e-45 1.46935e-45 1.45073e-45 1.4292e-45 1.40524e-45 1.37945e-45 1.35255e-45 1.32528e-45 1.29844e-45 1.27277e-45 1.24898e-45 1.22767e-45 1.20932e-45 1.19426e-45 1.18265e-45 1.1745e-45 1.16966e-45 1.16787e-45 1.16876e-45 1.17189e-45 1.1768e-45 1.18304e-45 1.19022e-45 1.19798e-45 1.20605e-45 1.21422e-45 1.22235e-45 1.23037e-45 1.23821e-45 1.24585e-45 1.25327e-45 1.26048e-45 1.26749e-45 1.27435e-45 1.28113e-45 1.28796e-45 1.29503e-45 1.30254e-45 1.31074e-45 1.31986e-45 1.33008e-45 1.34152e-45 1.35413e-45 1.36771e-45 1.38184e-45 1.39592e-45 1.40914e-45 1.4205e-45 1.4289e-45 1.43316e-45 1.43209e-45 1.42458e-45 1.40964e-45 1.38651e-45 1.35467e-45 1.31389e-45 1.26425e-45 1.20619e-45 1.14043e-45 1.06799e-45 9.90158e-46 9.08394e-46 8.24294e-46 7.39507e-46 6.55657e-46 5.7427e-46 4.96709e-46 4.24116e-46 3.57374e-46 2.97092e-46 2.43595e-46 1.96948e-46 1.56979e-46 1.23326e-46 9.5481e-47 7.28389e-47 5.47445e-47 4.05323e-47 2.95605e-47 2.12345e-47 1.50235e-47 1.04685e-47 7.18424e-48 4.85572e-48 3.23229e-48 2.11914e-48 1.36841e-48 8.70362e-49 5.45297e-49 3.36543e-49 2.04623e-49 1.22575e-49 7.23476e-50 4.20777e-50 2.41172e-50 1.36235e-50 7.58544e-51 4.16337e-51 2.25281e-51 1.2019e-51 6.32291e-52 3.28037e-52 1.67853e-52 8.47202e-53 4.21835e-53 2.07226e-53 1.00448e-53 4.80488e-54 2.26837e-54 1.05703e-54 4.86235e-55 2.20818e-55 9.90048e-56 4.38057e-56 1.90713e-56 8.02716e-57 2.91353e-57 0 
0 1.01947e-77 4.04071e-77 1.48937e-76 5.4187e-76 1.9538e-75 6.98324e-75 2.47403e-74 8.68753e-74 3.02345e-73 1.04279e-72 3.56406e-72 1.20704e-71 4.05037e-71 1.34658e-70 4.43514e-70 1.44705e-69 4.67662e-69 1.49699e-68 4.74582e-68 1.48997e-67 4.63213e-67 1.4259e-66 4.34577e-66 1.31123e-65 3.91643e-65 1.15788e-64 3.38815e-64 9.81181e-64 2.81182e-63 7.97327e-63 2.23697e-62 6.20892e-62 1.70477e-61 4.62987e-61 1.24361e-60 3.30346e-60 8.67726e-60 2.25362e-59 5.78656e-59 1.46878e-58 3.68509e-58 9.13789e-58 2.23927e-57 5.42226e-57 1.29725e-56 3.06611e-56 7.15855e-56 1.65077e-55 3.75943e-55 8.45439e-55 1.87723e-54 4.11506e-54 8.90446e-54 1.90178e-53 4.00848e-53 8.33713e-53 1.71087e-52 3.46358e-52 6.91656e-52 1.36225e-51 2.6459e-51 5.06738e-51 9.5683e-51 1.78103e-50 3.2677e-50 5.90871e-50 1.05286e-49 1.8485e-49 3.19737e-49 5.44799e-49 9.14328e-49 1.51126e-48 2.45982e-48 3.94226e-48 6.22047e-48 9.66262e-48 1.47748e-47 2.22365e-47 3.29379e-47 4.80155e-47 6.88806e-47 9.72348e-47 1.35064e-46 1.84603e-46 2.48268e-46 3.28536e-46 4.27802e-46 5.48174e-46 6.91264e-46 8.57952e-46 1.04818e-45 1.26076e-45 1.4933e-45 1.74218e-45 2.00267e-45 2.26913e-45 2.53535e-45 2.79496e-45 3.04191e-45 3.27087e-45 3.47765e-45 3.65952e-45 3.81537e-45 3.94571e-45 4.05253e-45 4.13903e-45 4.20928e-45 4.26771e-45 4.31874e-45 4.36637e-45 4.41385e-45 4.4635e-45 4.51665e-45 4.57365e-45 4.63405e-45 4.69681e-45 4.76055e-45 4.8238e-45 4.88523e-45 4.9438e-45 4.99885e-45 5.05014e-45 5.09776e-45 5.14207e-45 5.18351e-45 5.22252e-45 5.25936e-45 5.29401e-45 5.32611e-45 5.35495e-45 5.37949e-45 5.39841e-45 5.41026e-45 5.41352e-45 5.40677e-45 5.38883e-45 5.35887e-45 5.3165e-45 5.26184e-45 5.19556e-45 5.11889e-45 5.03355e-45 4.94172e-45 4.84588e-45 4.74875e-45 4.65312e-45 4.56169e-45 4.47697e-45 4.4011e-45 4.33579e-45 4.2822e-45 4.24092e-45 4.21199e-45 4.19487e-45 4.18859e-45 4.19183e-45 4.20303e-45 4.22056e-45 4.24283e-45 4.26838e-45 4.29598e-45 4.32465e-45 4.35367e-45 4.38256e-45 4.41101e-45 4.43883e-45 4.46595e-45 4.4923e-45 4.51789e-45 4.54277e-45 4.56711e-45 4.59119e-45 4.61546e-45 4.64054e-45 4.66723e-45 4.69638e-45 4.72884e-45 4.7653e-45 4.8061e-45 4.85114e-45 4.8997e-45 4.95034e-45 5.00088e-45 5.04843e-45 5.08949e-45 5.12008e-45 5.13597e-45 5.13294e-45 5.10697e-45 5.05456e-45 4.9729e-45 4.86009e-45 4.71527e-45 4.53872e-45 4.33187e-45 4.0973e-45 3.83863e-45 3.56039e-45 3.26779e-45 2.96654e-45 2.66256e-45 2.36167e-45 2.06937e-45 1.7906e-45 1.52948e-45 1.28925e-45 1.07214e-45 8.79345e-46 7.11146e-46 5.66961e-46 4.45508e-46 3.44978e-46 2.63207e-46 1.97841e-46 1.4649e-46 1.06839e-46 7.67464e-47 5.42964e-47 3.78317e-47 2.59601e-47 1.75438e-47 1.16764e-47 7.6538e-48 4.9413e-48 3.14211e-48 1.96807e-48 1.2143e-48 7.38084e-49 4.41993e-49 2.60788e-49 1.51622e-49 8.68711e-50 4.90536e-50 2.73017e-50 1.49788e-50 8.10169e-51 4.32049e-51 2.27193e-51 1.17817e-51 6.02593e-52 3.0401e-52 1.51303e-52 7.42936e-53 3.59957e-53 1.72105e-53 8.12131e-54 3.78269e-54 1.73925e-54 7.895e-55 3.53817e-55 1.5648e-55 6.80958e-56 2.86502e-56 1.03956e-56 0 
0 3.5444e-77 1.40506e-76 5.17982e-76 1.8849e-75 6.79765e-75 2.43008e-74 8.61109e-74 3.02442e-73 1.05279e-72 3.6319e-72 1.24161e-71 4.20595e-71 1.4117e-70 4.69452e-70 1.5466e-69 5.04742e-69 1.63169e-68 5.2245e-68 1.65677e-67 5.20303e-67 1.61805e-66 4.98236e-66 1.51898e-65 4.58465e-65 1.36982e-64 4.05121e-64 1.18587e-63 3.43542e-63 9.84865e-63 2.79376e-62 7.84114e-62 2.17724e-61 5.9804e-61 1.62484e-60 4.36624e-60 1.16032e-59 3.04916e-59 7.92265e-59 2.03519e-58 5.16824e-58 1.29728e-57 3.21839e-57 7.89056e-57 1.91159e-56 4.57567e-56 1.08203e-55 2.52753e-55 5.83153e-55 1.32876e-54 2.98976e-54 6.64208e-54 1.45679e-53 3.15403e-53 6.73994e-53 1.4214e-52 2.95797e-52 6.07345e-52 1.23023e-51 2.45808e-51 4.84402e-51 9.41379e-51 1.80392e-50 3.40807e-50 6.34725e-50 1.16518e-49 2.10804e-49 3.75825e-49 6.60183e-49 1.14251e-48 1.9477e-48 3.2704e-48 5.40812e-48 8.80662e-48 1.41203e-47 2.22898e-47 3.46381e-47 5.29842e-47 7.97714e-47 1.18201e-46 1.72361e-46 2.47329e-46 3.49226e-46 4.85196e-46 6.63278e-46 8.92151e-46 1.18072e-45 1.53758e-45 1.97027e-45 2.48454e-45 3.08348e-45 3.76678e-45 4.53008e-45 5.36464e-45 6.25731e-45 7.19091e-45 8.14506e-45 9.09735e-45 1.00248e-44 1.09057e-44 1.17208e-44 1.24552e-44 1.30992e-44 1.36491e-44 1.41068e-44 1.44797e-44 1.47796e-44 1.50212e-44 1.52205e-44 1.53938e-44 1.55552e-44 1.57166e-44 1.58864e-44 1.60693e-44 1.62666e-44 1.64766e-44 1.66957e-44 1.69187e-44 1.71405e-44 1.73561e-44 1.75619e-44 1.77554e-44 1.79358e-44 1.81033e-44 1.82592e-44 1.84051e-44 1.85426e-44 1.86724e-44 1.87947e-44 1.8908e-44 1.901e-44 1.90969e-44 1.91641e-44 1.92063e-44 1.92182e-44 1.91948e-44 1.91319e-44 1.90265e-44 1.88771e-44 1.86844e-44 1.84505e-44 1.81798e-44 1.78785e-44 1.75542e-44 1.72157e-44 1.68726e-44 1.65349e-44 1.6212e-44 1.59128e-44 1.5645e-44 1.54145e-44 1.52255e-44 1.508e-44 1.49782e-44 1.4918e-44 1.48962e-44 1.49079e-44 1.49478e-44 1.50098e-44 1.50885e-44 1.51787e-44 1.5276e-44 1.53771e-44 1.54793e-44 1.55809e-44 1.5681e-44 1.57789e-44 1.58743e-44 1.5967e-44 1.60571e-44 1.61447e-44 1.62303e-44 1.63151e-44 1.64005e-44 1.64888e-44 1.65829e-44 1.66857e-44 1.68002e-44 1.6929e-44 1.70734e-44 1.72329e-44 1.74052e-44 1.75851e-44 1.7765e-44 1.79348e-44 1.8082e-44 1.81925e-44 1.82514e-44 1.82436e-44 1.8155e-44 1.79729e-44 1.76873e-44 1.72912e-44 1.67816e-44 1.61591e-44 1.54287e-44 1.45993e-44 1.36835e-44 1.26972e-44 1.1659e-44 1.0589e-44 9.50825e-45 8.43749e-45 7.39642e-45 6.40268e-45 5.47117e-45 4.61356e-45 3.83792e-45 3.14878e-45 2.54721e-45 2.03126e-45 1.59647e-45 1.23644e-45 9.43492e-46 7.09256e-46 5.25196e-46 3.83051e-46 2.75158e-46 1.9466e-46 1.35622e-46 9.30539e-47 6.28768e-47 4.18412e-47 2.74212e-47 1.76992e-47 1.12519e-47 7.04571e-48 4.34591e-48 2.64073e-48 1.58084e-48 9.32408e-49 5.41899e-49 3.10359e-49 1.75181e-49 9.74601e-50 5.34478e-50 2.88962e-50 1.5403e-50 8.09607e-51 4.19654e-51 2.14539e-51 1.08185e-51 5.38175e-52 2.64134e-52 1.27914e-52 6.11301e-53 2.88326e-53 1.34231e-53 6.16892e-54 2.79895e-54 1.25378e-54 5.54242e-55 2.41082e-55 1.01389e-55 3.6777e-56 0 