# vtk DataFile Version 3.0
Gray-Scott Simulation Output
ASCII
DATASET STRUCTURED_POINTS
DIMENSIONS 256 256 1
SPACING 1.0 1.0 1.0
ORIGIN 0 0 0
POINT_DATA 65536
SCALARS u double
LOOKUP_TABLE default
0 0 0 0 0 0 0 0 0 0 0 0 0 0 0 0 0 0 0 0 0 0 0 0 0 0 0 0 0 0 0 0 0 0 0 0 0 0 0 0 0 0 0 0 0 0 0 0 0 0 0 0 0 0 0 0 0 0 0 0 0 0 0 0 0 0 0 0 0 0 0 0 0 0 0 0 0 0 0 0 0 0 0 0 0 0 0 0 0 0 0 0 0 0 0 0 0 0 0 0 0 0 0 0 0 0 0 0 0 0 0 0 0 0 0 0 0 0 0 0 0 0 0 0 0 0 0 0 0 0 0 0 0 0 0 0 0 0 0 0 0 0 0 0 0 0 0 0 0 0 0 0 0 0 0 0 0 0 0 0 0 0 0 0 0 0 0 0 0 0 0 0 0 0 0 0 0 0 0 0 0 0 0 0 0 0 0 0 0 0 0 0 0 0 0 0 0 0 0 0 0 0 0 0 0 0 0 0 0 0 0 0 0 0 0 0 0 0 0 0 0 0 0 0 0 0 0 0 0 0 0 0 0 0 0 0 0 0 0 0 0 0 0 0 0 0 0 0 0 0 0 0 0 0 0 0 
0 9.79541e-110 6.61811e-109 4.33341e-108 2.80806e-107 1.80146e-106 1.14407e-105 7.19197e-105 4.47476e-104 2.75535e-103 1.6789e-102 1.01222e-101 6.0378e-101 3.56281e-100 2.07956e-99 1.20052e-98 6.85389e-98 3.86926e-97 2.15969e-96 1.19172e-95 6.50029e-95 3.50435e-94 1.86702e-93 9.82881e-93 5.1122e-92 2.62672e-91 1.33309e-90 6.68173e-90 3.30703e-89 1.61602e-88 7.79567e-88 3.71186e-87 1.7442e-86 8.08726e-86 3.69945e-85 1.6693e-84 7.42882e-84 3.26003e-83 1.41047e-82 6.01552e-82 2.52853e-81 1.0473e-80 4.27361e-80 1.71776e-79 6.7996e-79 2.65016e-78 1.01681e-77 3.83966e-77 1.42672e-76 5.2153e-76 1.87508e-75 6.62911e-75 2.30402e-74 7.87057e-74 2.64185e-73 8.71124e-73 2.82105e-72 8.96986e-72 2.79953e-71 8.57413e-71 2.57619e-70 7.59138e-70 2.19327e-69 6.211e-69 1.72343e-68 4.68441e-68 1.24682e-67 3.24866e-67 8.2834e-67 2.06621e-66 5.04024e-66 1.20197e-65 2.80122e-65 6.37767e-65 1.41803e-64 3.07798e-64 6.51998e-64 1.34734e-63 2.7152e-63 5.33429e-63 1.02129e-62 1.90493e-62 3.4604e-62 6.12009e-62 1.05353e-61 1.76473e-61 2.87569e-61 4.55774e-61 7.02454e-61 1.05266e-60 1.53361e-60 2.17212e-60 2.99091e-60 4.00419e-60 5.21308e-60 6.60182e-60 8.13568e-60 9.76146e-60 1.14111e-59 1.30084e-59 1.44774e-59 1.57524e-59 1.67869e-59 1.75595e-59 1.80776e-59 1.83759e-59 1.85115e-59 1.85561e-59 1.85857e-59 1.86711e-59 1.88682e-59 1.9212e-59 1.97125e-59 2.03552e-59 2.11047e-59 2.19113e-59 2.2719e-59 2.34749e-59 2.41367e-59 2.4678e-59 2.50916e-59 2.53879e-59 2.5592e-59 2.5738e-59 2.58625e-59 2.59989e-59 2.61728e-59 2.63989e-59 2.66806e-59 2.70102e-59 2.73714e-59 2.77411e-59 2.80922e-59 2.83958e-59 2.86229e-59 2.87467e-59 2.87437e-59 2.85963e-59 2.82941e-59 2.78354e-59 2.72275e-59 2.64869e-59 2.56375e-59 2.47088e-59 2.37338e-59 2.27466e-59 2.17812e-59 2.08696e-59 2.0042e-59 1.93251e-59 1.87415e-59 1.83078e-59 1.80327e-59 1.79152e-59 1.79437e-59 1.80964e-59 1.83434e-59 1.86501e-59 1.89818e-59 1.9308e-59 1.96066e-59 1.98657e-59 2.00843e-59 2.02706e-59 2.04391e-59 2.06065e-59 2.07875e-59 2.09909e-59 2.12175e-59 2.14593e-59 2.17008e-59 2.19223e-59 2.21047e-59 2.22343e-59 2.23075e-59 2.23336e-59 2.23352e-59 2.23463e-59 2.2407e-59 2.25577e-59 2.28311e-59 2.32462e-59 2.3803e-59 2.44808e-59 2.52384e-59 2.60181e-59 2.67516e-59 2.73673e-59 2.77968e-59 2.7982e-59 2.78786e-59 2.74595e-59 2.67148e-59 2.56516e-59 2.4292e-59 2.26711e-59 2.08353e-59 1.88396e-59 1.67452e-59 1.46165e-59 1.25173e-59 1.05069e-59 8.63655e-60 6.9461e-60 5.46184e-60 4.19602e-60 3.14758e-60 2.3043e-60 1.64566e-60 1.14614e-60 7.78244e-61 5.15104e-61 3.32293e-61 2.08912e-61 1.28002e-61 7.64352e-62 4.44862e-62 2.52382e-62 1.3959e-62 7.52812e-63 3.95947e-63 2.03142e-63 1.0169e-63 4.9679e-64 2.36921e-64 1.10327e-64 5.01808e-65 2.22992e-65 9.6842e-66 4.11142e-66 1.70688e-66 6.93148e-67 2.75418e-67 1.0711e-67 4.07825e-68 1.52072e-68 5.55496e-69 1.98838e-69 6.97638e-70 2.3999e-70 8.09679e-71 2.67983e-71 8.70353e-72 2.77455e-72 8.68384e-73 2.66911e-73 8.05868e-74 2.39064e-74 6.96979e-75 1.9975e-75 5.62877e-76 1.55989e-76 4.2513e-77 1.1356e-77 2.81075e-78 0 
0 6.6195e-109 4.47165e-108 2.92748e-107 1.89671e-106 1.21661e-105 7.72521e-105 4.85554e-104 3.0206e-103 1.85966e-102 1.13297e-101 6.82975e-101 4.0733e-100 2.40325e-99 1.40255e-98 8.09571e-98 4.6213e-97 2.60854e-96 1.45581e-95 8.03218e-95 4.38062e-94 2.36134e-93 1.2579e-92 6.62138e-92 3.44355e-91 1.76915e-90 8.97767e-90 4.49932e-89 2.22665e-88 1.08797e-87 5.24786e-87 2.49851e-86 1.17394e-85 5.44269e-85 2.48951e-84 1.12325e-83 4.99838e-83 2.19331e-82 9.48887e-82 4.04664e-81 1.70084e-80 7.04434e-80 2.87437e-79 1.15528e-78 4.57289e-78 1.78222e-77 6.83776e-77 2.58198e-76 9.5937e-76 3.50685e-75 1.26081e-74 4.45737e-74 1.54919e-73 5.29202e-73 1.77632e-72 5.85728e-72 1.89684e-71 6.03127e-71 1.88242e-70 5.7654e-70 1.73231e-69 5.10484e-69 1.47492e-68 4.17689e-68 1.15905e-67 3.15053e-67 8.38599e-67 2.18512e-66 5.5719e-66 1.38993e-65 3.39076e-65 8.0866e-65 1.88473e-64 4.29135e-64 9.5422e-64 2.07137e-63 4.38804e-63 9.06843e-63 1.82764e-62 3.59085e-62 6.87547e-62 1.28252e-61 2.32992e-61 4.121e-61 7.09449e-61 1.18845e-60 1.93675e-60 3.06977e-60 4.7315e-60 7.09073e-60 1.0331e-59 1.46329e-59 2.01496e-59 2.69771e-59 3.5123e-59 4.44811e-59 5.48175e-59 6.5774e-59 7.68921e-59 8.76577e-59 9.75601e-59 1.06157e-58 1.13132e-58 1.18345e-58 1.21842e-58 1.23858e-58 1.24777e-58 1.25081e-58 1.25282e-58 1.25854e-58 1.27177e-58 1.29483e-58 1.32842e-58 1.37156e-58 1.42188e-58 1.47604e-58 1.53028e-58 1.58104e-58 1.62549e-58 1.66185e-58 1.68964e-58 1.70955e-58 1.72327e-58 1.73309e-58 1.74145e-58 1.75062e-58 1.76229e-58 1.77747e-58 1.79637e-58 1.81849e-58 1.84273e-58 1.86754e-58 1.8911e-58 1.91148e-58 1.92672e-58 1.93503e-58 1.93484e-58 1.92495e-58 1.90468e-58 1.87389e-58 1.83309e-58 1.78337e-58 1.72634e-58 1.66398e-58 1.5985e-58 1.5322e-58 1.46735e-58 1.40611e-58 1.3505e-58 1.30233e-58 1.26312e-58 1.23397e-58 1.21549e-58 1.2076e-58 1.20953e-58 1.21981e-58 1.23643e-58 1.25706e-58 1.27938e-58 1.30132e-58 1.3214e-58 1.33883e-58 1.35352e-58 1.36604e-58 1.37735e-58 1.38859e-58 1.40073e-58 1.41439e-58 1.4296e-58 1.44584e-58 1.46206e-58 1.47694e-58 1.4892e-58 1.49791e-58 1.50284e-58 1.5046e-58 1.50471e-58 1.50544e-58 1.50952e-58 1.51962e-58 1.53796e-58 1.5658e-58 1.60317e-58 1.64865e-58 1.69948e-58 1.7518e-58 1.80103e-58 1.84234e-58 1.87115e-58 1.88356e-58 1.87658e-58 1.8484e-58 1.79834e-58 1.72687e-58 1.63547e-58 1.52649e-58 1.40303e-58 1.26879e-58 1.12789e-58 9.84634e-59 8.4333e-59 7.07977e-59 5.82026e-59 4.68163e-59 3.68169e-59 2.82875e-59 2.12216e-59 1.55375e-59 1.10974e-59 7.72944e-60 5.24873e-60 3.47421e-60 2.2413e-60 1.40915e-60 8.63415e-61 5.15587e-61 3.00079e-61 1.70242e-61 9.4158e-62 5.07786e-62 2.67067e-62 1.37016e-62 6.85852e-63 3.3505e-63 1.59779e-63 7.44013e-64 3.38387e-64 1.50364e-64 6.52975e-65 2.77206e-65 1.15078e-65 4.67296e-66 1.85668e-66 7.22031e-67 2.74902e-67 1.02502e-67 3.74411e-68 1.34014e-68 4.70181e-69 1.61739e-69 5.45659e-70 1.80595e-70 5.86521e-71 1.8697e-71 5.85175e-72 1.7986e-72 5.43038e-73 1.61094e-73 4.69662e-74 1.34603e-74 3.79303e-75 1.05117e-75 2.86489e-76 7.65279e-77 1.89421e-77 0 
0 4.33528e-108 2.92813e-107 1.91665e-106 1.24159e-105 7.96264e-105 5.05529e-104 3.17691e-103 1.97602e-102 1.21637e-101 7.40942e-101 4.46585e-100 2.66306e-99 1.57098e-98 9.16699e-98 5.29058e-97 3.01962e-96 1.70422e-95 9.50987e-95 5.24624e-94 2.86085e-93 1.54192e-92 8.21295e-92 4.32264e-91 2.24779e-90 1.15469e-89 5.85891e-89 2.93598e-88 1.45283e-87 7.09801e-87 3.42341e-86 1.62973e-85 7.65674e-85 3.54956e-84 1.62345e-83 7.32431e-83 3.25902e-82 1.42997e-81 6.18604e-81 2.63795e-80 1.10869e-79 4.59158e-79 1.87345e-78 7.52954e-78 2.98025e-77 1.16147e-76 4.456e-76 1.68257e-75 6.25166e-75 2.28517e-74 8.21566e-74 2.90448e-73 1.00947e-72 3.44833e-72 1.15747e-71 3.81671e-71 1.23603e-70 3.93021e-70 1.22668e-69 3.75714e-69 1.12893e-68 3.3269e-68 9.61266e-68 2.72238e-67 7.55474e-67 2.05363e-66 5.46662e-66 1.42451e-65 3.63264e-65 9.06237e-65 2.21094e-64 5.27324e-64 1.22912e-63 2.7988e-63 6.22389e-63 1.35116e-62 2.86257e-62 5.91635e-62 1.19247e-61 2.3431e-61 4.48676e-61 8.37009e-61 1.5207e-60 2.68992e-60 4.63118e-60 7.75858e-60 1.26446e-59 2.00432e-59 3.0895e-59 4.63027e-59 6.74652e-59 9.55633e-59 1.31598e-58 1.76196e-58 2.29408e-58 2.90542e-58 3.5807e-58 4.29653e-58 5.02296e-58 5.72641e-58 6.37353e-58 6.9354e-58 7.39146e-58 7.73235e-58 7.96124e-58 8.09334e-58 8.15371e-58 8.17376e-58 8.1869e-58 8.22414e-58 8.31008e-58 8.46004e-58 8.6785e-58 8.95917e-58 9.28659e-58 9.63901e-58 9.99202e-58 1.03225e-57 1.06118e-57 1.08486e-57 1.10295e-57 1.11592e-57 1.12486e-57 1.13125e-57 1.1367e-57 1.14267e-57 1.15027e-57 1.16014e-57 1.17244e-57 1.18682e-57 1.20258e-57 1.21872e-57 1.23404e-57 1.2473e-57 1.25722e-57 1.26263e-57 1.2625e-57 1.25608e-57 1.24289e-57 1.22287e-57 1.19633e-57 1.16398e-57 1.12687e-57 1.08628e-57 1.04366e-57 1.0005e-57 9.58282e-58 9.18409e-58 8.82197e-58 8.50825e-58 8.25283e-58 8.06301e-58 7.94263e-58 7.89129e-58 7.90393e-58 7.97102e-58 8.07943e-58 8.21401e-58 8.35951e-58 8.5026e-58 8.63353e-58 8.74708e-58 8.84279e-58 8.92429e-58 8.99793e-58 9.07103e-58 9.15003e-58 9.23885e-58 9.33784e-58 9.44351e-58 9.54909e-58 9.646e-58 9.72585e-58 9.78263e-58 9.81475e-58 9.82623e-58 9.82696e-58 9.83174e-58 9.85818e-58 9.92381e-58 1.0043e-57 1.02241e-57 1.04671e-57 1.07628e-57 1.10934e-57 1.14337e-57 1.17539e-57 1.20225e-57 1.22099e-57 1.22904e-57 1.22448e-57 1.20611e-57 1.1735e-57 1.12693e-57 1.06737e-57 9.96347e-58 9.15872e-58 8.28349e-58 7.36455e-58 6.43008e-58 5.50808e-58 4.6247e-58 3.80247e-58 3.05899e-58 2.40593e-58 1.84877e-58 1.38712e-58 1.01569e-58 7.25498e-59 5.05357e-59 3.43188e-59 2.27174e-59 1.46562e-59 9.21489e-60 5.64627e-60 3.37169e-60 1.96237e-60 1.11329e-60 6.15731e-61 3.3205e-61 1.74634e-61 8.95904e-62 4.48439e-62 2.19059e-62 1.0446e-62 4.86392e-63 2.21204e-63 9.82874e-64 4.26801e-64 1.81178e-64 7.52086e-65 3.05382e-65 1.21329e-65 4.71799e-66 1.7962e-66 6.69712e-67 2.44614e-67 8.75515e-68 3.07156e-68 1.05655e-68 3.56436e-69 1.17964e-69 3.83104e-70 1.22122e-70 3.82206e-71 1.17474e-71 3.54674e-72 1.05214e-72 3.06746e-73 8.79121e-74 2.47732e-74 6.86551e-75 1.87117e-75 4.99842e-76 1.23723e-76 0 
0 2.80991e-107 1.89756e-106 1.24187e-105 8.0434e-105 5.15761e-104 3.27392e-103 2.05711e-102 1.27932e-101 7.87382e-101 4.79555e-100 2.88997e-99 1.72309e-98 1.01633e-97 5.92965e-97 3.42173e-96 1.9527e-95 1.10192e-94 6.14813e-94 3.39126e-93 1.84907e-92 9.96481e-92 5.30705e-91 2.79288e-90 1.45215e-89 7.45885e-89 3.78423e-88 1.89613e-87 9.3818e-87 4.58318e-86 2.21029e-85 1.05213e-84 4.94263e-84 2.29115e-83 1.04781e-82 4.72693e-82 2.10315e-81 9.22743e-81 3.99153e-80 1.70203e-79 7.15297e-79 2.96222e-78 1.20859e-77 4.85721e-77 1.92245e-76 7.49198e-76 2.87423e-75 1.08527e-74 4.03231e-74 1.47391e-73 5.29897e-73 1.87334e-72 6.51089e-72 2.22413e-71 7.46563e-71 2.46179e-70 7.97259e-70 2.53511e-69 7.91274e-69 2.42364e-68 7.28275e-68 2.14628e-67 6.2017e-67 1.75646e-66 4.87455e-66 1.32515e-65 3.52768e-65 9.1932e-65 2.34452e-64 5.84934e-64 1.42717e-63 3.40418e-63 7.93534e-63 1.8071e-62 4.01893e-62 8.72561e-62 1.84877e-61 3.82139e-61 7.70295e-61 1.5137e-60 2.89882e-60 5.40826e-60 9.82673e-60 1.73837e-59 2.99317e-59 5.01484e-59 8.17361e-59 1.29571e-58 1.99737e-58 2.99367e-58 4.36218e-58 6.17929e-58 8.50978e-58 1.13942e-57 1.4836e-57 1.87902e-57 2.31583e-57 2.77888e-57 3.24882e-57 3.70394e-57 4.12265e-57 4.48626e-57 4.78145e-57 5.00219e-57 5.15049e-57 5.23618e-57 5.27543e-57 5.28852e-57 5.29703e-57 5.32098e-57 5.37626e-57 5.47278e-57 5.61344e-57 5.79421e-57 6.00513e-57 6.23219e-57 6.45965e-57 6.6726e-57 6.85907e-57 7.01168e-57 7.12831e-57 7.21194e-57 7.2696e-57 7.31085e-57 7.346e-57 7.38446e-57 7.4334e-57 7.49699e-57 7.57615e-57 7.66879e-57 7.77027e-57 7.87416e-57 7.97284e-57 8.0582e-57 8.12209e-57 8.15694e-57 8.1562e-57 8.11486e-57 8.02998e-57 7.90102e-57 7.73008e-57 7.5217e-57 7.28262e-57 7.02114e-57 6.74652e-57 6.46837e-57 6.19623e-57 5.93919e-57 5.70574e-57 5.50346e-57 5.33876e-57 5.21637e-57 5.13875e-57 5.10568e-57 5.11389e-57 5.15724e-57 5.22725e-57 5.31414e-57 5.40808e-57 5.50045e-57 5.58494e-57 5.65821e-57 5.71994e-57 5.77248e-57 5.81991e-57 5.86699e-57 5.91785e-57 5.97505e-57 6.03882e-57 6.1069e-57 6.17495e-57 6.23743e-57 6.28892e-57 6.32555e-57 6.34628e-57 6.3537e-57 6.35418e-57 6.35724e-57 6.37422e-57 6.41645e-57 6.49316e-57 6.60971e-57 6.76614e-57 6.95656e-57 7.16943e-57 7.38854e-57 7.59468e-57 7.76764e-57 7.88823e-57 7.94e-57 7.91048e-57 7.79196e-57 7.5816e-57 7.28124e-57 6.89701e-57 6.43874e-57 5.91938e-57 5.35441e-57 4.76107e-57 4.15754e-57 3.56192e-57 2.99109e-57 2.45965e-57 1.979e-57 1.5567e-57 1.19635e-57 8.97711e-58 6.57393e-58 4.69613e-58 3.27141e-58 2.22176e-58 1.47077e-58 9.48911e-59 5.96633e-59 3.65583e-59 2.1831e-59 1.27059e-59 7.2082e-60 3.98657e-60 2.1498e-60 1.13059e-60 5.7999e-61 2.90295e-61 1.41799e-61 6.76139e-62 3.14808e-62 1.43161e-62 6.36064e-63 2.76184e-63 1.17233e-63 4.86611e-64 1.97574e-64 7.8491e-65 3.05201e-65 1.16187e-65 4.33175e-66 1.58209e-66 5.66226e-67 1.98638e-67 6.83242e-68 2.30487e-68 7.62776e-69 2.47712e-69 7.89607e-70 2.47117e-70 7.59511e-71 2.29306e-71 6.80226e-72 1.98314e-72 5.68356e-73 1.6016e-73 4.43859e-74 1.20973e-74 3.23157e-75 7.99901e-76 0 
0 1.80306e-106 1.21743e-105 7.96627e-105 5.1588e-104 3.30741e-103 2.09913e-102 1.31875e-101 8.20003e-101 5.04612e-100 3.07288e-99 1.85156e-98 1.1038e-97 6.5096e-97 3.79742e-96 2.19102e-95 1.2502e-94 7.05403e-94 3.93526e-93 2.17039e-92 1.18325e-91 6.37589e-91 3.39527e-90 1.78659e-89 9.28828e-89 4.77035e-88 2.41998e-87 1.21244e-86 5.99839e-86 2.93005e-85 1.41292e-84 6.72513e-84 3.15904e-83 1.46425e-82 6.69598e-82 3.02051e-81 1.34382e-80 5.89557e-80 2.55011e-79 1.08734e-78 4.56943e-78 1.89223e-77 7.72001e-77 3.10249e-76 1.22791e-75 4.78515e-75 1.83574e-74 6.9314e-74 2.57532e-73 9.41335e-73 3.38426e-72 1.19644e-71 4.15831e-71 1.4205e-70 4.76822e-70 1.57236e-69 5.09227e-69 1.61929e-68 5.05439e-68 1.5482e-67 4.6524e-67 1.37117e-66 3.96222e-66 1.12226e-65 3.11471e-65 8.46795e-65 2.25442e-64 5.87552e-64 1.49855e-63 3.73903e-63 9.12361e-63 2.17642e-62 5.07384e-62 1.15557e-61 2.57019e-61 5.58076e-61 1.18257e-60 2.4446e-60 4.92818e-60 9.68529e-60 1.85497e-59 3.46112e-59 6.28941e-59 1.11271e-58 1.91607e-58 3.21052e-58 5.23321e-58 8.29653e-58 1.27903e-57 1.91714e-57 2.79371e-57 3.9577e-57 5.45062e-57 7.29849e-57 9.50348e-57 1.20369e-56 1.48356e-56 1.78026e-56 2.0814e-56 2.37305e-56 2.64139e-56 2.87446e-56 3.06372e-56 3.20528e-56 3.30045e-56 3.35549e-56 3.38076e-56 3.38921e-56 3.39466e-56 3.40991e-56 3.44512e-56 3.50665e-56 3.59635e-56 3.71165e-56 3.84622e-56 3.99111e-56 4.13627e-56 4.27218e-56 4.3912e-56 4.48863e-56 4.5631e-56 4.6165e-56 4.65333e-56 4.67968e-56 4.70213e-56 4.72667e-56 4.7579e-56 4.79846e-56 4.84895e-56 4.90802e-56 4.97274e-56 5.03899e-56 5.10192e-56 5.15636e-56 5.19713e-56 5.21938e-56 5.21892e-56 5.19258e-56 5.13846e-56 5.05622e-56 4.94718e-56 4.81425e-56 4.66171e-56 4.49485e-56 4.31958e-56 4.14205e-56 3.96832e-56 3.80422e-56 3.65515e-56 3.52598e-56 3.4208e-56 3.34264e-56 3.29308e-56 3.27199e-56 3.27727e-56 3.30501e-56 3.34979e-56 3.40536e-56 3.46542e-56 3.52448e-56 3.57848e-56 3.6253e-56 3.66473e-56 3.69827e-56 3.72853e-56 3.75855e-56 3.79099e-56 3.82747e-56 3.86815e-56 3.9116e-56 3.95503e-56 3.99492e-56 4.02781e-56 4.05121e-56 4.06446e-56 4.06921e-56 4.06952e-56 4.07146e-56 4.08227e-56 4.10916e-56 4.15806e-56 4.23236e-56 4.33209e-56 4.45352e-56 4.58927e-56 4.72901e-56 4.86047e-56 4.97076e-56 5.04764e-56 5.0806e-56 5.06169e-56 4.98595e-56 4.85155e-56 4.65967e-56 4.41417e-56 4.12132e-56 3.78935e-56 3.42813e-56 3.04868e-56 2.66261e-56 2.2815e-56 1.91615e-56 1.57593e-56 1.26814e-56 9.97667e-57 7.66813e-57 5.75463e-57 4.21454e-57 3.01095e-57 2.09764e-57 1.42469e-57 9.43172e-58 6.08537e-58 3.8263e-58 2.34457e-58 1.40008e-58 8.14854e-59 4.62266e-59 2.55654e-59 1.37859e-59 7.24977e-60 3.71891e-60 1.86127e-60 9.0911e-61 4.33461e-61 2.01804e-61 9.17652e-62 4.07681e-62 1.77005e-62 7.51283e-63 3.1182e-63 1.26595e-63 5.02894e-64 1.95529e-64 7.44306e-65 2.77478e-65 1.01337e-65 3.6266e-66 1.27217e-66 4.37556e-67 1.47599e-67 4.88442e-68 1.58615e-68 5.05581e-69 1.58222e-69 4.86278e-70 1.4681e-70 4.35495e-71 1.26963e-71 3.63863e-72 1.02534e-72 2.84157e-73 7.74465e-74 2.06885e-74 5.12101e-75 0 
0 1.14535e-105 7.73225e-105 5.05878e-104 3.27544e-103 2.09962e-102 1.33237e-101 8.36914e-101 5.20317e-100 3.20144e-99 1.94926e-98 1.17436e-97 6.99987e-97 4.12758e-96 2.40753e-95 1.3889e-94 7.92403e-94 4.47043e-93 2.49363e-92 1.37513e-91 7.49601e-91 4.03872e-90 2.15045e-89 1.13144e-88 5.8816e-88 3.02041e-87 1.53209e-86 7.6752e-86 3.79686e-85 1.8545e-84 8.94197e-84 4.25579e-83 1.99895e-82 9.26466e-82 4.23641e-81 1.91089e-80 8.501e-80 3.72932e-79 1.61302e-78 6.87739e-78 2.89003e-77 1.19673e-76 4.88232e-76 1.96203e-75 7.76515e-75 3.02601e-74 1.16086e-73 4.38314e-73 1.62852e-72 5.95259e-72 2.14007e-71 7.56583e-71 2.62961e-70 8.98306e-70 3.01543e-69 9.94389e-69 3.22057e-68 1.02415e-67 3.19689e-67 9.79282e-67 2.94294e-66 8.67402e-66 2.50667e-65 7.10038e-65 1.97078e-64 5.35838e-64 1.42668e-63 3.71856e-63 9.48501e-63 2.36684e-62 5.77588e-62 1.37796e-61 3.21274e-61 7.3178e-61 1.62779e-60 3.53486e-60 7.49121e-60 1.54875e-59 3.12254e-59 6.13736e-59 1.17558e-58 2.19371e-58 3.98674e-58 7.054e-58 1.2148e-57 2.03569e-57 3.31851e-57 5.26147e-57 8.11194e-57 1.216e-56 1.7721e-56 2.5106e-56 3.45784e-56 4.63035e-56 6.02953e-56 7.63721e-56 9.41327e-56 1.12962e-55 1.32074e-55 1.50585e-55 1.67619e-55 1.82415e-55 1.94432e-55 2.03424e-55 2.09472e-55 2.12974e-55 2.14584e-55 2.15124e-55 2.15469e-55 2.16429e-55 2.18651e-55 2.22534e-55 2.28198e-55 2.35482e-55 2.43985e-55 2.53141e-55 2.62316e-55 2.70906e-55 2.7843e-55 2.84589e-55 2.89298e-55 2.92676e-55 2.95005e-55 2.96672e-55 2.98091e-55 2.99643e-55 3.01616e-55 3.04178e-55 3.07367e-55 3.11097e-55 3.15184e-55 3.19369e-55 3.23344e-55 3.26783e-55 3.29358e-55 3.30765e-55 3.30738e-55 3.29076e-55 3.25659e-55 3.20465e-55 3.13577e-55 3.05178e-55 2.95539e-55 2.84994e-55 2.73917e-55 2.62694e-55 2.51711e-55 2.41336e-55 2.3191e-55 2.23741e-55 2.17089e-55 2.12145e-55 2.09012e-55 2.07679e-55 2.08016e-55 2.09774e-55 2.12611e-55 2.1613e-55 2.19934e-55 2.23673e-55 2.27092e-55 2.30054e-55 2.32548e-55 2.34668e-55 2.3658e-55 2.38476e-55 2.40524e-55 2.42828e-55 2.45398e-55 2.48144e-55 2.5089e-55 2.53413e-55 2.55492e-55 2.56973e-55 2.57812e-55 2.58113e-55 2.58132e-55 2.58254e-55 2.58935e-55 2.60631e-55 2.63717e-55 2.68408e-55 2.74706e-55 2.82375e-55 2.90948e-55 2.99773e-55 3.08076e-55 3.15042e-55 3.19896e-55 3.21975e-55 3.20774e-55 3.15981e-55 3.07478e-55 2.95338e-55 2.79804e-55 2.61269e-55 2.40254e-55 2.17382e-55 1.93349e-55 1.68889e-55 1.44737e-55 1.21578e-55 1.00006e-55 8.04859e-56 6.3328e-56 4.86803e-56 3.65368e-56 2.67613e-56 1.91205e-56 1.33217e-56 9.04848e-57 5.99054e-57 3.86524e-57 2.43041e-57 1.48925e-57 8.89314e-58 5.17578e-58 2.93614e-58 1.62376e-58 8.7556e-59 4.60419e-59 2.36167e-59 1.18191e-59 5.77247e-60 2.75209e-60 1.28118e-60 5.82535e-61 2.58779e-61 1.12346e-61 4.76803e-62 1.9788e-62 8.03303e-63 3.19082e-63 1.24051e-63 4.72181e-64 1.76016e-64 6.42776e-65 2.30017e-65 8.06822e-66 2.77484e-66 9.35967e-67 3.09718e-67 1.00572e-67 3.20554e-68 1.00313e-68 3.08291e-69 9.30714e-70 2.76078e-70 8.0485e-71 2.30658e-71 6.49967e-72 1.80126e-72 4.9093e-73 1.31144e-73 3.2462e-74 0 
0 7.20174e-105 4.86112e-104 3.17985e-103 2.05856e-102 1.31937e-101 8.37113e-101 5.25744e-100 3.26812e-99 2.01053e-98 1.22398e-97 7.37296e-97 4.39412e-96 2.59071e-95 1.5109e-94 8.71522e-94 4.97163e-93 2.80445e-92 1.56415e-91 8.62454e-91 4.70082e-90 2.53243e-89 1.34827e-88 7.09303e-88 3.68682e-87 1.89312e-86 9.60185e-86 4.80974e-85 2.37913e-84 1.16194e-83 5.60214e-83 2.66604e-82 1.25215e-81 5.80304e-81 2.65335e-80 1.19676e-79 5.32373e-79 2.33536e-78 1.01005e-77 4.30633e-77 1.80955e-76 7.49291e-76 3.0568e-75 1.22839e-74 4.8615e-74 1.89446e-73 7.26759e-73 2.74406e-72 1.01953e-71 3.72664e-71 1.33981e-70 4.73674e-70 1.64635e-69 5.6243e-69 1.88803e-68 6.22631e-68 2.01663e-67 6.41322e-67 2.002e-66 6.13297e-66 1.84319e-65 5.43301e-65 1.57018e-64 4.44803e-64 1.2347e-63 3.35733e-63 8.93977e-63 2.33033e-62 5.94461e-62 1.48354e-61 3.62072e-61 8.63898e-61 2.01442e-60 4.58885e-60 1.02087e-59 2.21717e-59 4.69926e-59 9.71651e-59 1.95925e-58 3.85136e-58 7.37797e-58 1.37693e-57 2.50265e-57 4.42858e-57 7.62748e-57 1.27829e-56 2.08403e-56 3.30452e-56 5.09522e-56 7.63844e-56 1.11325e-55 1.57728e-55 2.17252e-55 2.90935e-55 3.78866e-55 4.79905e-55 5.91531e-55 7.0988e-55 8.30008e-55 9.46369e-55 1.05345e-54 1.14648e-54 1.22205e-54 1.27861e-54 1.31667e-54 1.33872e-54 1.34888e-54 1.35229e-54 1.35445e-54 1.36044e-54 1.37431e-54 1.39858e-54 1.434e-54 1.47957e-54 1.53277e-54 1.59006e-54 1.64749e-54 1.70126e-54 1.74836e-54 1.78692e-54 1.8164e-54 1.83755e-54 1.85214e-54 1.86258e-54 1.87147e-54 1.88118e-54 1.89353e-54 1.90955e-54 1.92949e-54 1.95283e-54 1.97839e-54 2.00456e-54 2.02942e-54 2.05093e-54 2.06705e-54 2.07586e-54 2.0757e-54 2.06531e-54 2.04395e-54 2.01147e-54 1.96838e-54 1.91583e-54 1.85552e-54 1.78953e-54 1.7202e-54 1.64995e-54 1.58119e-54 1.51622e-54 1.4572e-54 1.40604e-54 1.36438e-54 1.33342e-54 1.3138e-54 1.30546e-54 1.30759e-54 1.31863e-54 1.33642e-54 1.3585e-54 1.38235e-54 1.40579e-54 1.42722e-54 1.44579e-54 1.4614e-54 1.47467e-54 1.48663e-54 1.49849e-54 1.5113e-54 1.52571e-54 1.54179e-54 1.55897e-54 1.57616e-54 1.59196e-54 1.60499e-54 1.61426e-54 1.61952e-54 1.62141e-54 1.62153e-54 1.62228e-54 1.62653e-54 1.63712e-54 1.65641e-54 1.68574e-54 1.72512e-54 1.77307e-54 1.8267e-54 1.88189e-54 1.93383e-54 1.97739e-54 2.00774e-54 2.02072e-54 2.01318e-54 1.98314e-54 1.92987e-54 1.85381e-54 1.75647e-54 1.6403e-54 1.50856e-54 1.36514e-54 1.21439e-54 1.06093e-54 9.09355e-55 7.63969e-55 6.2851e-55 5.05904e-55 3.9811e-55 3.06066e-55 2.29743e-55 1.68292e-55 1.20252e-55 8.37888e-56 5.69152e-56 3.76825e-56 2.43144e-56 1.52888e-56 9.36837e-57 5.59434e-57 3.25582e-57 1.84692e-57 1.02135e-57 5.50704e-58 2.89574e-58 1.48524e-58 7.43244e-59 3.62973e-59 1.73037e-59 8.05468e-60 3.66204e-60 1.62664e-60 7.06121e-61 2.99654e-61 1.24349e-61 5.04754e-62 2.00476e-62 7.79333e-63 2.96614e-63 1.1056e-63 4.03711e-64 1.44456e-64 5.06666e-65 1.74241e-65 5.87683e-66 1.94456e-66 6.314e-67 2.01237e-67 6.29714e-68 1.9352e-68 5.84201e-69 1.73286e-69 5.05164e-70 1.44768e-70 4.07932e-71 1.13049e-71 3.08109e-72 8.23056e-73 2.03731e-73 0 
0 4.48192e-104 3.0248e-103 1.97833e-102 1.28052e-101 8.20587e-101 5.20566e-100 3.2689e-99 2.03171e-98 1.24972e-97 7.60702e-97 4.58166e-96 2.73019e-95 1.60947e-94 9.38519e-94 5.4129e-93 3.08742e-92 1.74137e-91 9.71113e-91 5.354e-90 2.91788e-89 1.57175e-88 8.36711e-88 4.40137e-87 2.28752e-86 1.17449e-85 5.95643e-85 2.98342e-84 1.47562e-83 7.20616e-83 3.47409e-82 1.65319e-81 7.76394e-81 3.59793e-80 1.645e-79 7.41913e-79 3.3002e-78 1.44763e-77 6.26078e-77 2.66917e-76 1.12157e-75 4.64401e-75 1.89452e-74 7.61306e-74 3.01293e-73 1.17409e-72 4.50405e-72 1.70062e-71 6.31856e-71 2.30962e-70 8.30375e-70 2.93576e-69 1.02041e-68 3.48608e-68 1.17029e-67 3.85955e-67 1.25012e-66 3.97583e-66 1.2412e-65 3.80258e-65 1.14291e-64 3.3691e-64 9.73775e-64 2.75877e-63 7.65859e-63 2.08268e-62 5.54626e-62 1.4459e-61 3.68885e-61 9.20694e-61 2.24731e-60 5.36268e-60 1.25061e-59 2.84925e-59 6.33948e-59 1.37701e-58 2.91892e-58 6.03615e-58 1.21729e-57 2.39318e-57 4.58514e-57 8.55819e-57 1.55569e-56 2.75321e-56 4.74247e-56 7.94878e-56 1.29604e-55 2.05526e-55 3.16928e-55 4.75159e-55 6.92566e-55 9.81315e-55 1.35173e-54 1.81028e-54 2.35753e-54 2.98639e-54 3.68116e-54 4.41781e-54 5.16556e-54 5.88991e-54 6.55654e-54 7.13573e-54 7.60631e-54 7.95861e-54 8.19579e-54 8.33332e-54 8.39674e-54 8.41807e-54 8.4314e-54 8.46836e-54 8.55408e-54 8.70426e-54 8.92359e-54 9.20582e-54 9.53543e-54 9.89048e-54 1.02463e-53 1.05796e-53 1.08716e-53 1.11106e-53 1.12934e-53 1.14246e-53 1.1515e-53 1.15798e-53 1.16349e-53 1.16951e-53 1.17715e-53 1.18708e-53 1.19943e-53 1.21388e-53 1.22971e-53 1.24591e-53 1.26131e-53 1.27464e-53 1.28463e-53 1.29009e-53 1.29e-53 1.28357e-53 1.27035e-53 1.25023e-53 1.22354e-53 1.19099e-53 1.15362e-53 1.11273e-53 1.06976e-53 1.02622e-53 9.83592e-54 9.43315e-54 9.06716e-54 8.74994e-54 8.49159e-54 8.2996e-54 8.17795e-54 8.12633e-54 8.13964e-54 8.20824e-54 8.3188e-54 8.45589e-54 8.604e-54 8.74953e-54 8.88254e-54 8.99772e-54 9.09458e-54 9.1768e-54 9.25087e-54 9.32427e-54 9.40357e-54 9.49281e-54 9.59243e-54 9.69891e-54 9.80547e-54 9.90341e-54 9.98421e-54 1.00418e-53 1.00744e-53 1.00861e-53 1.00869e-53 1.00915e-53 1.01177e-53 1.01832e-53 1.03026e-53 1.04841e-53 1.07279e-53 1.10249e-53 1.1357e-53 1.16988e-53 1.20205e-53 1.22903e-53 1.24782e-53 1.25585e-53 1.25116e-53 1.23252e-53 1.19947e-53 1.15228e-53 1.09188e-53 1.01979e-53 9.3801e-54 8.48954e-54 7.55324e-54 6.5998e-54 5.65778e-54 4.75398e-54 3.91166e-54 3.14906e-54 2.47843e-54 1.90565e-54 1.43061e-54 1.04806e-54 7.48952e-55 5.2189e-55 3.54525e-55 2.34734e-55 1.51466e-55 9.52424e-56 5.83607e-56 3.48498e-56 2.02816e-56 1.15047e-56 6.36181e-57 3.43003e-57 1.80348e-57 9.24944e-58 4.62824e-58 2.26006e-58 1.07733e-58 5.01434e-59 2.27954e-59 1.01244e-59 4.39456e-60 1.86471e-60 7.7373e-61 3.14038e-61 1.24716e-61 4.84774e-62 1.84487e-62 6.87593e-63 2.51052e-63 8.9824e-64 3.15022e-64 1.08326e-64 3.65338e-65 1.20877e-65 3.9246e-66 1.25075e-66 3.91364e-67 1.20265e-67 3.63041e-68 1.07681e-68 3.139e-69 8.99535e-70 2.53466e-70 7.02407e-71 1.91434e-71 5.11373e-72 1.26579e-72 0 
0 2.76043e-103 1.86271e-102 1.21809e-101 7.88317e-101 5.05095e-100 3.20376e-99 2.01151e-98 1.25003e-97 7.68794e-97 4.67898e-96 2.81773e-95 1.67885e-94 9.89566e-94 5.76966e-93 3.32723e-92 1.89756e-91 1.07014e-90 5.96717e-90 3.28949e-89 1.79254e-88 9.65474e-88 5.13911e-87 2.70306e-86 1.40473e-85 7.21169e-85 3.65708e-84 1.83158e-83 9.05839e-83 4.42331e-82 2.13233e-81 1.01463e-80 4.76472e-80 2.20791e-79 1.00942e-78 4.55235e-78 2.0249e-77 8.88181e-77 3.84111e-76 1.63753e-75 6.88061e-75 2.84895e-74 1.16221e-73 4.67023e-73 1.84827e-72 7.20236e-72 2.76299e-71 1.04325e-70 3.87619e-70 1.41689e-69 5.09425e-69 1.80111e-68 6.26054e-68 2.1389e-67 7.18072e-67 2.36829e-66 7.67143e-66 2.43994e-65 7.61773e-65 2.33396e-64 7.01554e-64 2.06824e-63 5.97843e-63 1.69389e-62 4.70288e-62 1.27904e-61 3.40651e-61 8.88173e-61 2.26623e-60 5.65694e-60 1.38097e-59 3.2958e-59 7.68703e-59 1.75156e-58 3.8977e-58 8.46741e-58 1.79514e-57 3.71275e-57 7.48843e-57 1.47242e-56 2.82142e-56 5.26689e-56 9.57528e-56 1.69482e-55 2.91972e-55 4.89428e-55 7.98097e-55 1.26575e-54 1.95202e-54 2.92687e-54 4.26639e-54 6.04561e-54 8.32819e-54 1.11541e-53 1.45267e-53 1.84024e-53 2.26845e-53 2.72249e-53 3.18339e-53 3.62989e-53 4.04083e-53 4.3979e-53 4.68806e-53 4.90535e-53 5.05168e-53 5.13658e-53 5.17577e-53 5.18895e-53 5.19709e-53 5.21965e-53 5.2721e-53 5.3641e-53 5.49855e-53 5.67163e-53 5.87382e-53 6.09166e-53 6.31003e-53 6.51455e-53 6.69374e-53 6.84046e-53 6.95266e-53 7.03316e-53 7.08871e-53 7.12846e-53 7.16229e-53 7.19921e-53 7.2461e-53 7.30696e-53 7.38269e-53 7.47128e-53 7.56834e-53 7.66771e-53 7.76216e-53 7.84389e-53 7.90517e-53 7.9387e-53 7.9382e-53 7.89885e-53 7.81778e-53 7.69444e-53 7.53077e-53 7.33111e-53 7.10186e-53 6.85097e-53 6.5873e-53 6.32009e-53 6.05847e-53 5.81123e-53 5.58655e-53 5.39178e-53 5.23316e-53 5.11528e-53 5.04061e-53 5.00896e-53 5.01721e-53 5.05943e-53 5.12744e-53 5.21174e-53 5.3028e-53 5.39226e-53 5.474e-53 5.54474e-53 5.60421e-53 5.65466e-53 5.70007e-53 5.74506e-53 5.79366e-53 5.84838e-53 5.90948e-53 5.97481e-53 6.04021e-53 6.10034e-53 6.14996e-53 6.18533e-53 6.20538e-53 6.21258e-53 6.21301e-53 6.21579e-53 6.23181e-53 6.27193e-53 6.34505e-53 6.45632e-53 6.60579e-53 6.78788e-53 6.9915e-53 7.20114e-53 7.39837e-53 7.56382e-53 7.67904e-53 7.72822e-53 7.69932e-53 7.58482e-53 7.38184e-53 7.09198e-53 6.72092e-53 6.2779e-53 5.77525e-53 5.22772e-53 4.6519e-53 4.06535e-53 3.48566e-53 2.92932e-53 2.41068e-53 1.94099e-53 1.52785e-53 1.17491e-53 8.8213e-54 6.46312e-54 4.61901e-54 3.21889e-54 2.18675e-54 1.44793e-54 9.34318e-55 5.87511e-55 3.60002e-55 2.14969e-55 1.25102e-55 7.09607e-56 3.92375e-56 2.11539e-56 1.11217e-56 5.70349e-57 2.85366e-57 1.39337e-57 6.64124e-58 3.0908e-58 1.40494e-58 6.23927e-59 2.70789e-59 1.14889e-59 4.76659e-60 1.93443e-60 7.68147e-61 2.98548e-61 1.13604e-61 4.23365e-62 1.54563e-62 5.52956e-63 1.93909e-63 6.66734e-64 2.24841e-64 7.43856e-65 2.41495e-65 7.69579e-66 2.40788e-66 7.3989e-67 2.23336e-67 6.62398e-68 1.93086e-68 5.533e-69 1.55901e-69 4.3202e-70 1.1774e-70 3.14509e-71 7.78486e-72 0 