# vtk DataFile Version 3.0
Gray-Scott Simulation Output
ASCII
DATASET STRUCTURED_POINTS
DIMENSIONS 256 256 1
SPACING 1.0 1.0 1.0
ORIGIN 0 0 0
POINT_DATA 65536
SCALARS u double
LOOKUP_TABLE default
0 0 0 0 0 0 0 0 0 0 0 0 0 0 0 0 0 0 0 0 0 0 0 0 0 0 0 0 0 0 0 0 0 0 0 0 0 0 0 0 0 0 0 0 0 0 0 0 0 0 0 0 0 0 0 0 0 0 0 0 0 0 0 0 0 0 0 0 0 0 0 0 0 0 0 0 0 0 0 0 0 0 0 0 0 0 0 0 0 0 0 0 0 0 0 0 0 0 0 0 0 0 0 0 0 0 0 0 0 0 0 0 0 0 0 0 0 0 0 0 0 0 0 0 0 0 0 0 0 0 0 0 0 0 0 0 0 0 0 0 0 0 0 0 0 0 0 0 0 0 0 0 0 0 0 0 0 0 0 0 0 0 0 0 0 0 0 0 0 0 0 0 0 0 0 0 0 0 0 0 0 0 0 0 0 0 0 0 0 0 0 0 0 0 0 0 0 0 0 0 0 0 0 0 0 0 0 0 0 0 0 0 0 0 0 0 0 0 0 0 0 0 0 0 0 0 0 0 0 0 0 0 0 0 0 0 0 0 0 0 0 0 0 0 0 0 0 0 0 0 0 0 0 0 0 0 
0 6.96103e-90 3.27424e-89 1.45896e-88 6.42764e-88 2.80532e-87 1.21296e-86 5.19526e-86 2.20413e-85 9.26187e-85 3.85441e-84 1.58847e-83 6.48229e-83 2.61919e-82 1.04775e-81 4.14923e-81 1.62649e-80 6.31069e-80 2.42326e-79 9.20839e-79 3.46247e-78 1.28815e-77 4.74112e-77 1.7262e-76 6.21654e-76 2.21418e-75 7.79902e-75 2.71633e-74 9.35392e-74 3.1844e-73 1.07161e-72 3.5643e-72 1.17162e-71 3.80565e-71 1.22137e-70 3.87249e-70 1.21285e-69 3.75181e-69 1.14615e-68 3.4574e-68 1.02971e-67 3.02743e-67 8.78564e-67 2.51625e-66 7.11142e-66 1.98299e-65 5.45485e-65 1.48007e-64 3.96057e-64 1.04506e-63 2.71878e-63 6.97243e-63 1.76241e-62 4.39013e-62 1.07752e-61 2.60544e-61 6.20548e-61 1.45559e-60 3.36201e-60 7.64512e-60 1.71129e-59 3.77001e-59 8.17275e-59 1.74312e-58 3.65719e-58 7.54662e-58 1.53133e-57 3.05509e-57 5.99162e-57 1.15493e-56 2.18769e-56 4.07159e-56 7.44422e-56 1.33685e-55 2.35769e-55 4.08286e-55 6.94151e-55 1.15849e-54 1.8977e-54 3.05069e-54 4.81234e-54 7.44829e-54 1.13099e-53 1.68471e-53 2.46167e-53 3.52817e-53 4.9599e-53 6.83904e-53 9.24963e-53 1.2271e-52 1.59696e-52 2.039e-52 2.55456e-52 3.14108e-52 3.79157e-52 4.49449e-52 5.23405e-52 5.9911e-52 6.74445e-52 7.47263e-52 8.15572e-52 8.77719e-52 9.32548e-52 9.795e-52 1.01865e-51 1.05068e-51 1.07675e-51 1.0984e-51 1.1173e-51 1.13506e-51 1.15312e-51 1.17251e-51 1.19385e-51 1.21728e-51 1.24253e-51 1.269e-51 1.29588e-51 1.32232e-51 1.34751e-51 1.37085e-51 1.39196e-51 1.41075e-51 1.42737e-51 1.44218e-51 1.45564e-51 1.46825e-51 1.48043e-51 1.4925e-51 1.50454e-51 1.51647e-51 1.52796e-51 1.53851e-51 1.54747e-51 1.55412e-51 1.55769e-51 1.55749e-51 1.55289e-51 1.54347e-51 1.52897e-51 1.50941e-51 1.48501e-51 1.45628e-51 1.4239e-51 1.3888e-51 1.35202e-51 1.31468e-51 1.27797e-51 1.24303e-51 1.21092e-51 1.18253e-51 1.1586e-51 1.1396e-51 1.12575e-51 1.117e-51 1.11307e-51 1.11342e-51 1.1174e-51 1.12422e-51 1.13309e-51 1.14328e-51 1.15416e-51 1.16525e-51 1.17623e-51 1.18693e-51 1.1973e-51 1.20736e-51 1.21716e-51 1.22671e-51 1.236e-51 1.24497e-51 1.25353e-51 1.26159e-51 1.26912e-51 1.27622e-51 1.28309e-51 1.29011e-51 1.29776e-51 1.3066e-51 1.3172e-51 1.33e-51 1.34524e-51 1.36287e-51 1.38247e-51 1.40322e-51 1.42394e-51 1.44311e-51 1.459e-51 1.46976e-51 1.47356e-51 1.46875e-51 1.45394e-51 1.42811e-51 1.39071e-51 1.34167e-51 1.28142e-51 1.21087e-51 1.13137e-51 1.04464e-51 9.52676e-52 8.57646e-52 7.61783e-52 6.67266e-52 5.76105e-52 4.9005e-52 4.10513e-52 3.38522e-52 2.74698e-52 2.19273e-52 1.72125e-52 1.32834e-52 1.00758e-52 7.5104e-53 5.50028e-53 3.95713e-53 2.79641e-53 1.94091e-53 1.32302e-53 8.85661e-54 5.82237e-54 3.75891e-54 2.38322e-54 1.48395e-54 9.07509e-55 5.45111e-55 3.21628e-55 1.86422e-55 1.06158e-55 5.93979e-56 3.26586e-56 1.76476e-56 9.37316e-57 4.89395e-57 2.51225e-57 1.26811e-57 6.2951e-58 3.07371e-58 1.47639e-58 6.97724e-59 3.2447e-59 1.48504e-59 6.69024e-60 2.96723e-60 1.29578e-60 5.57252e-61 2.36034e-61 9.84841e-62 4.04849e-62 1.6399e-62 6.54648e-63 2.57587e-63 9.99123e-64 3.82011e-64 1.43793e-64 5.27008e-65 1.71212e-65 0 
0 3.27505e-89 1.5405e-88 6.86442e-88 3.0243e-87 1.31998e-86 5.70748e-86 2.44469e-85 1.03722e-84 4.35863e-84 1.81397e-83 7.47608e-83 3.05103e-82 1.23285e-81 4.93206e-81 1.95328e-80 7.65739e-80 2.97124e-79 1.14102e-78 4.33625e-78 1.63062e-77 6.06699e-77 2.23322e-76 8.13174e-76 2.92879e-75 1.04328e-74 3.67516e-74 1.28018e-73 4.40895e-73 1.50116e-72 5.05235e-72 1.6807e-71 5.52543e-71 1.79503e-70 5.76179e-70 1.82713e-69 5.72343e-69 1.77078e-68 5.41053e-68 1.6324e-67 4.86263e-67 1.42993e-66 4.15049e-66 1.18896e-65 3.36093e-65 9.37375e-65 2.57911e-64 6.99949e-64 1.87344e-63 4.94452e-63 1.28664e-62 3.30043e-62 8.3445e-62 2.07911e-61 5.10427e-61 1.23453e-60 2.94108e-60 6.90055e-60 1.59426e-59 3.62627e-59 8.11925e-59 1.78917e-58 3.87969e-58 8.27705e-58 1.73706e-57 3.5854e-57 7.27735e-57 1.45227e-56 2.84894e-56 5.49303e-56 1.04078e-55 1.93753e-55 3.54337e-55 6.36487e-55 1.12279e-54 1.94484e-54 3.3073e-54 5.52092e-54 9.04561e-54 1.45445e-53 2.29478e-53 3.5524e-53 5.39508e-53 8.03774e-53 1.17463e-52 1.68375e-52 2.36729e-52 3.2645e-52 4.41553e-52 5.85824e-52 7.62436e-52 9.73509e-52 1.21968e-51 1.49971e-51 1.81026e-51 2.14578e-51 2.49873e-51 2.85995e-51 3.2193e-51 3.56652e-51 3.8921e-51 4.18814e-51 4.44914e-51 4.67244e-51 4.85841e-51 5.01031e-51 5.13376e-51 5.23603e-51 5.32513e-51 5.40884e-51 5.49391e-51 5.58535e-51 5.68609e-51 5.79682e-51 5.91626e-51 6.04154e-51 6.16885e-51 6.29406e-51 6.41341e-51 6.52397e-51 6.62397e-51 6.71296e-51 6.79167e-51 6.86177e-51 6.92549e-51 6.98517e-51 7.04287e-51 7.1e-51 7.15708e-51 7.2136e-51 7.26807e-51 7.31811e-51 7.36066e-51 7.39224e-51 7.40927e-51 7.40837e-51 7.38668e-51 7.3421e-51 7.27348e-51 7.18081e-51 7.06523e-51 6.92904e-51 6.77563e-51 6.60925e-51 6.43488e-51 6.2579e-51 6.08389e-51 5.91825e-51 5.76601e-51 5.63149e-51 5.51808e-51 5.42805e-51 5.36246e-51 5.3211e-51 5.30253e-51 5.30432e-51 5.32325e-51 5.35565e-51 5.39777e-51 5.44611e-51 5.49769e-51 5.55023e-51 5.60223e-51 5.65289e-51 5.70197e-51 5.74959e-51 5.79594e-51 5.84116e-51 5.88515e-51 5.92762e-51 5.96813e-51 6.00629e-51 6.04198e-51 6.07557e-51 6.10809e-51 6.14129e-51 6.17747e-51 6.21932e-51 6.26947e-51 6.33007e-51 6.40228e-51 6.48584e-51 6.57876e-51 6.67719e-51 6.7755e-51 6.86652e-51 6.942e-51 6.99318e-51 7.01141e-51 6.98877e-51 6.91866e-51 6.79628e-51 6.61893e-51 6.38626e-51 6.10027e-51 5.76526e-51 5.38762e-51 4.97547e-51 4.53828e-51 4.08635e-51 3.6303e-51 3.18049e-51 2.74649e-51 2.33667e-51 1.95777e-51 1.6147e-51 1.31047e-51 1.04621e-51 8.21357e-52 6.33936e-52 4.80901e-52 3.58486e-52 2.62553e-52 1.88899e-52 1.33493e-52 9.26538e-53 6.31564e-53 4.2277e-53 2.77916e-53 1.7941e-53 1.1374e-53 7.08149e-54 4.33019e-54 2.60067e-54 1.53425e-54 8.89144e-55 5.06243e-55 2.83206e-55 1.55686e-55 8.41113e-56 4.46653e-56 2.33161e-56 1.19665e-56 6.03905e-57 2.99722e-57 1.46313e-57 7.02624e-58 3.31975e-58 1.54346e-58 7.06252e-59 3.18099e-59 1.41049e-59 6.15816e-60 2.6477e-60 1.12122e-60 4.67718e-61 1.92226e-61 7.78466e-62 3.10694e-62 1.22223e-62 4.73972e-63 1.81183e-63 6.81847e-64 2.49851e-64 8.11576e-65 0 
0 1.45971e-88 6.86629e-88 3.05967e-87 1.34806e-86 5.88394e-86 2.54426e-85 1.08983e-84 4.62408e-84 1.94325e-83 8.08781e-83 3.3335e-82 1.3605e-81 5.49786e-81 2.1996e-80 8.7119e-80 3.41557e-79 1.32543e-78 5.09042e-78 1.9347e-77 7.27608e-77 2.70746e-76 9.96707e-76 3.62969e-75 1.30745e-74 4.65793e-74 1.64106e-73 5.71713e-73 1.96927e-72 6.70593e-72 2.25732e-71 7.51031e-71 2.46948e-70 8.02389e-70 2.576e-69 8.17027e-69 2.55979e-68 7.92129e-68 2.42079e-67 7.30522e-67 2.17655e-66 6.40184e-66 1.8586e-65 5.3254e-65 1.50572e-64 4.20052e-64 1.15602e-63 3.13813e-63 8.40144e-63 2.21795e-62 5.77297e-62 1.48126e-61 3.74611e-61 9.33639e-61 2.29276e-60 5.5469e-60 1.32186e-59 3.10234e-59 7.16959e-59 1.63127e-58 3.65355e-58 8.0535e-58 1.74688e-57 3.728e-57 7.82615e-57 1.61587e-56 3.28078e-56 6.54914e-56 1.28515e-55 2.47865e-55 4.69776e-55 8.74805e-55 1.60031e-54 2.87543e-54 5.07381e-54 8.79094e-54 1.49534e-53 2.49683e-53 4.09187e-53 6.58087e-53 1.03854e-52 1.60803e-52 2.44261e-52 3.63972e-52 5.31993e-52 7.62688e-52 1.07245e-51 1.47908e-51 2.00077e-51 2.6547e-51 3.45522e-51 4.41193e-51 5.52765e-51 6.79675e-51 8.20397e-51 9.72414e-51 1.13229e-50 1.29587e-50 1.45855e-50 1.61568e-50 1.76294e-50 1.89675e-50 2.01463e-50 2.11537e-50 2.19916e-50 2.26747e-50 2.32287e-50 2.36866e-50 2.40847e-50 2.44583e-50 2.4838e-50 2.52466e-50 2.56974e-50 2.61934e-50 2.6729e-50 2.72913e-50 2.78629e-50 2.84253e-50 2.89615e-50 2.94582e-50 2.99074e-50 3.03071e-50 3.06605e-50 3.09752e-50 3.12612e-50 3.15291e-50 3.17882e-50 3.20448e-50 3.23012e-50 3.25552e-50 3.28002e-50 3.30253e-50 3.32169e-50 3.33592e-50 3.34362e-50 3.34326e-50 3.33356e-50 3.31356e-50 3.28275e-50 3.24113e-50 3.1892e-50 3.128e-50 3.05904e-50 2.98425e-50 2.90586e-50 2.82629e-50 2.74806e-50 2.6736e-50 2.60516e-50 2.54469e-50 2.49372e-50 2.45327e-50 2.42382e-50 2.40527e-50 2.39697e-50 2.39782e-50 2.40638e-50 2.42099e-50 2.43995e-50 2.4617e-50 2.48489e-50 2.5085e-50 2.53185e-50 2.55459e-50 2.57661e-50 2.59798e-50 2.61878e-50 2.63907e-50 2.65882e-50 2.67789e-50 2.69608e-50 2.71321e-50 2.72924e-50 2.74432e-50 2.75891e-50 2.7738e-50 2.79002e-50 2.80879e-50 2.8313e-50 2.85852e-50 2.89096e-50 2.92852e-50 2.9703e-50 3.01459e-50 3.05884e-50 3.09984e-50 3.13386e-50 3.15697e-50 3.16526e-50 3.15517e-50 3.12372e-50 3.06873e-50 2.98897e-50 2.88427e-50 2.75552e-50 2.60463e-50 2.43446e-50 2.24867e-50 2.0515e-50 1.8476e-50 1.64176e-50 1.43864e-50 1.2426e-50 1.0574e-50 8.86113e-51 7.30973e-51 5.93351e-51 4.73774e-51 3.72001e-51 2.87151e-51 2.17854e-51 1.62411e-51 1.18957e-51 8.55891e-52 6.04861e-52 4.19817e-52 2.86158e-52 1.91546e-52 1.25909e-52 8.12748e-53 5.15204e-53 3.20732e-53 1.96096e-53 1.17756e-53 6.94584e-54 4.02464e-54 2.29105e-54 1.28142e-54 7.04287e-55 3.80418e-55 2.01967e-55 1.05406e-55 5.40845e-56 2.72878e-56 1.35397e-56 6.60791e-57 3.17244e-57 1.49852e-57 6.96531e-58 3.18632e-58 1.43476e-58 6.36022e-59 2.77612e-59 1.19328e-59 5.05186e-60 2.10684e-60 8.65659e-61 3.50481e-61 1.39845e-61 5.49995e-62 2.13232e-62 8.14913e-63 3.06605e-63 1.12325e-63 3.64793e-64 0 
0 6.43276e-88 3.02596e-87 1.34843e-86 5.94127e-86 2.59331e-85 1.12142e-84 4.80379e-84 2.03833e-83 8.56643e-83 3.56557e-82 1.46969e-81 5.99868e-81 2.42427e-80 9.69982e-80 3.8421e-79 1.50646e-78 5.84642e-78 2.24558e-77 8.53558e-77 3.21042e-76 1.19475e-75 4.39877e-75 1.60209e-74 5.77162e-74 2.05647e-73 7.24626e-73 2.52481e-72 8.69802e-72 2.96239e-71 9.97345e-71 3.31881e-70 1.09145e-69 3.547e-69 1.13894e-68 3.61306e-68 1.13221e-67 3.50435e-67 1.07117e-66 3.23317e-66 9.63518e-66 2.83462e-65 8.23146e-65 2.3591e-64 6.67184e-64 1.86171e-63 5.12491e-63 1.39157e-62 3.72653e-62 9.84059e-62 2.56206e-61 6.57575e-61 1.66349e-60 4.14711e-60 1.01872e-59 2.46535e-59 5.87686e-59 1.3797e-58 3.18953e-58 7.25934e-58 1.62639e-57 3.58619e-57 7.7813e-57 1.66114e-56 3.48835e-56 7.20477e-56 1.46329e-55 2.92199e-55 5.73574e-55 1.10659e-54 2.09798e-54 3.90802e-54 7.15129e-54 1.28532e-53 2.26867e-53 3.93185e-53 6.68994e-53 1.11734e-52 1.8316e-52 2.94645e-52 4.65093e-52 7.20287e-52 1.09435e-51 1.63099e-51 2.38432e-51 3.41879e-51 4.80797e-51 6.63174e-51 8.97174e-51 1.1905e-50 1.54958e-50 1.97871e-50 2.47914e-50 3.04832e-50 3.67936e-50 4.36092e-50 5.07758e-50 5.81061e-50 6.53938e-50 7.24295e-50 7.90196e-50 8.50041e-50 9.02712e-50 9.47675e-50 9.85016e-50 1.0154e-49 1.03999e-49 1.06026e-49 1.07784e-49 1.09433e-49 1.11108e-49 1.12914e-49 1.14908e-49 1.17106e-49 1.19482e-49 1.21978e-49 1.24517e-49 1.27016e-49 1.29398e-49 1.31606e-49 1.33602e-49 1.35378e-49 1.36947e-49 1.38345e-49 1.39615e-49 1.40805e-49 1.41955e-49 1.43095e-49 1.44235e-49 1.45365e-49 1.46454e-49 1.47457e-49 1.4831e-49 1.48945e-49 1.49289e-49 1.49275e-49 1.48846e-49 1.47958e-49 1.4659e-49 1.44741e-49 1.42432e-49 1.39711e-49 1.36645e-49 1.33319e-49 1.29833e-49 1.26294e-49 1.22814e-49 1.19502e-49 1.16459e-49 1.1377e-49 1.11503e-49 1.09706e-49 1.08398e-49 1.07574e-49 1.07208e-49 1.07248e-49 1.07631e-49 1.08282e-49 1.09127e-49 1.10095e-49 1.11127e-49 1.12176e-49 1.13213e-49 1.14223e-49 1.152e-49 1.16149e-49 1.17072e-49 1.17973e-49 1.1885e-49 1.19697e-49 1.20505e-49 1.21266e-49 1.21978e-49 1.22647e-49 1.23295e-49 1.23955e-49 1.24675e-49 1.25508e-49 1.26507e-49 1.27716e-49 1.29158e-49 1.30828e-49 1.32688e-49 1.34659e-49 1.3663e-49 1.38457e-49 1.39975e-49 1.41008e-49 1.41381e-49 1.40937e-49 1.39541e-49 1.37097e-49 1.33549e-49 1.28889e-49 1.23155e-49 1.16431e-49 1.08845e-49 1.00559e-49 9.17612e-50 8.26594e-50 7.34667e-50 6.43922e-50 5.56297e-50 4.73488e-50 3.96869e-50 3.27449e-50 2.65847e-50 2.12306e-50 1.66724e-50 1.28712e-50 9.76601e-51 7.28123e-51 5.33339e-51 3.83752e-51 2.71203e-51 1.88234e-51 1.28302e-51 8.58778e-52 5.64463e-52 3.64332e-52 2.30927e-52 1.43743e-52 8.78722e-53 5.27595e-53 3.11148e-53 1.80256e-53 1.02592e-53 5.73693e-54 3.15241e-54 1.70237e-54 9.0359e-55 4.71465e-55 2.41852e-55 1.21992e-55 6.05148e-56 2.95256e-56 1.41714e-56 6.69212e-57 3.10972e-57 1.42217e-57 6.40205e-58 2.83722e-58 1.23805e-58 5.32014e-59 2.25171e-59 9.38801e-60 3.85631e-60 1.56089e-60 6.22645e-61 2.44815e-61 9.48898e-62 3.6255e-62 1.36373e-62 4.99487e-63 1.62186e-63 0 
0 2.80835e-87 1.32108e-86 5.88724e-86 2.59405e-85 1.13233e-84 4.89672e-84 2.0977e-83 8.90138e-83 3.74119e-82 1.55728e-81 6.41939e-81 2.62032e-80 1.05904e-79 4.23772e-79 1.67871e-78 6.58268e-78 2.55492e-77 9.81432e-77 3.73087e-76 1.40342e-75 5.22339e-75 1.92336e-74 7.00603e-74 2.5243e-73 8.99552e-73 3.17016e-72 1.10474e-71 3.80646e-71 1.29662e-70 4.36605e-70 1.45312e-69 4.77972e-69 1.5536e-68 4.98958e-68 1.58316e-67 4.9621e-67 1.53616e-66 4.69659e-66 1.41791e-65 4.22649e-65 1.2437e-64 3.61247e-64 1.03558e-63 2.92949e-63 8.1766e-63 2.25145e-62 6.11504e-62 1.63802e-61 4.32674e-61 1.12682e-60 2.89294e-60 7.32057e-60 1.82559e-59 4.48589e-59 1.08595e-58 2.58949e-58 6.08128e-58 1.4063e-57 3.20179e-57 7.1757e-57 1.58278e-56 3.43546e-56 7.33644e-56 1.54116e-55 3.18416e-55 6.46924e-55 1.29225e-54 2.53749e-54 4.89719e-54 9.28761e-54 1.73062e-53 3.16787e-53 5.69549e-53 1.0056e-52 1.74333e-52 2.96709e-52 4.95698e-52 8.12789e-52 1.30785e-51 2.06492e-51 3.19866e-51 4.86083e-51 7.2459e-51 1.05946e-50 1.51936e-50 2.13704e-50 2.94804e-50 3.98865e-50 5.29313e-50 6.89008e-50 8.79852e-50 1.10239e-49 1.35548e-49 1.63603e-49 1.93899e-49 2.25747e-49 2.58313e-49 2.90678e-49 3.21909e-49 3.51145e-49 3.77674e-49 4.01002e-49 4.20892e-49 4.37384e-49 4.50778e-49 4.61588e-49 4.70476e-49 4.78168e-49 4.85371e-49 4.92696e-49 5.00598e-49 5.09341e-49 5.18991e-49 5.29434e-49 5.40415e-49 5.51592e-49 5.62598e-49 5.73093e-49 5.82815e-49 5.91607e-49 5.99427e-49 6.06338e-49 6.12489e-49 6.18078e-49 6.23314e-49 6.28378e-49 6.33397e-49 6.38418e-49 6.43397e-49 6.48203e-49 6.52625e-49 6.56393e-49 6.59199e-49 6.60726e-49 6.60675e-49 6.58793e-49 6.54891e-49 6.48868e-49 6.40722e-49 6.30552e-49 6.18561e-49 6.05047e-49 5.90386e-49 5.75017e-49 5.59417e-49 5.44077e-49 5.29476e-49 5.16059e-49 5.04207e-49 4.94221e-49 4.86302e-49 4.80542e-49 4.76922e-49 4.75316e-49 4.75504e-49 4.77201e-49 4.80082e-49 4.83813e-49 4.88084e-49 4.9263e-49 4.97253e-49 5.0182e-49 5.06263e-49 5.10564e-49 5.14734e-49 5.18795e-49 5.22759e-49 5.26618e-49 5.30347e-49 5.33906e-49 5.37258e-49 5.40391e-49 5.43338e-49 5.46187e-49 5.49091e-49 5.52255e-49 5.55918e-49 5.60315e-49 5.65637e-49 5.71989e-49 5.79352e-49 5.87552e-49 5.96252e-49 6.04955e-49 6.13027e-49 6.19739e-49 6.24315e-49 6.25986e-49 6.24049e-49 6.17915e-49 6.0715e-49 5.91509e-49 5.70948e-49 5.45635e-49 5.15941e-49 4.82421e-49 4.45789e-49 4.0688e-49 3.66605e-49 3.25911e-49 2.85721e-49 2.46897e-49 2.10191e-49 1.76216e-49 1.45421e-49 1.18085e-49 9.43188e-50 7.40795e-50 5.7197e-50 4.34029e-50 3.23626e-50 2.37066e-50 1.70582e-50 1.20555e-50 8.36727e-51 5.70303e-51 3.81708e-51 2.50874e-51 1.61911e-51 1.02614e-51 6.38647e-52 3.90357e-52 2.34337e-52 1.38175e-52 8.00329e-53 4.55408e-53 2.54609e-53 1.39874e-53 7.55172e-54 4.00732e-54 2.09036e-54 1.07203e-54 5.40597e-55 2.68091e-55 1.30768e-55 6.27465e-56 2.96222e-56 1.3761e-56 6.29151e-57 2.83137e-57 1.25443e-57 5.47224e-58 2.35085e-58 9.94696e-59 4.14599e-59 1.70256e-59 6.88942e-60 2.74745e-60 1.07997e-60 4.1848e-61 1.59848e-61 6.01111e-62 2.20113e-62 7.14575e-63 0 
0 1.21461e-86 5.71388e-86 2.54642e-85 1.12206e-84 4.89812e-84 2.11828e-83 9.07502e-83 3.85112e-82 1.6187e-81 6.73835e-81 2.77787e-80 1.13398e-79 4.58353e-79 1.83425e-78 7.26675e-78 2.84977e-77 1.10619e-76 4.2497e-76 1.61569e-75 6.07837e-75 2.26258e-74 8.33238e-74 3.03555e-73 1.09388e-72 3.89867e-72 1.37416e-71 4.78945e-71 1.6505e-70 5.62317e-70 1.8938e-69 6.30414e-69 2.074e-68 6.74264e-68 2.16592e-67 6.8737e-67 2.15489e-66 6.67255e-66 2.0405e-65 6.16175e-65 1.83713e-64 5.40734e-64 1.57102e-63 4.50476e-63 1.27467e-62 3.55873e-62 9.8018e-62 2.66297e-61 7.13532e-61 1.88531e-60 4.91144e-60 1.26132e-59 3.19277e-59 7.96463e-59 1.95772e-58 4.74083e-58 1.13085e-57 2.65663e-57 6.14559e-57 1.39967e-56 3.13797e-56 6.92399e-56 1.5034e-55 3.21165e-55 6.74907e-55 1.39491e-54 2.83503e-54 5.66507e-54 1.11279e-53 2.14836e-53 4.07581e-53 7.5973e-53 1.39114e-52 2.50194e-52 4.41885e-52 7.66301e-52 1.30462e-51 2.1802e-51 3.57584e-51 5.75538e-51 9.0893e-51 1.40831e-50 2.14061e-50 3.19161e-50 4.66748e-50 6.69474e-50 9.41781e-50 1.29935e-49 1.75819e-49 2.33339e-49 3.03757e-49 3.87907e-49 4.86027e-49 5.97603e-49 7.2127e-49 8.54788e-49 9.9511e-49 1.13855e-48 1.28105e-48 1.41848e-48 1.54706e-48 1.66364e-48 1.76605e-48 1.85326e-48 1.92545e-48 1.98395e-48 2.03104e-48 2.06964e-48 2.10297e-48 2.13414e-48 2.16586e-48 2.20012e-48 2.23809e-48 2.28008e-48 2.32557e-48 2.37345e-48 2.42222e-48 2.47025e-48 2.51607e-48 2.55852e-48 2.5969e-48 2.63103e-48 2.66118e-48 2.68802e-48 2.71239e-48 2.73523e-48 2.75732e-48 2.77923e-48 2.80115e-48 2.82291e-48 2.84391e-48 2.86326e-48 2.87975e-48 2.89205e-48 2.89876e-48 2.89859e-48 2.89041e-48 2.8734e-48 2.84712e-48 2.81156e-48 2.76715e-48 2.71478e-48 2.65574e-48 2.59168e-48 2.52452e-48 2.45635e-48 2.38932e-48 2.32552e-48 2.26689e-48 2.21511e-48 2.1715e-48 2.13692e-48 2.11179e-48 2.09601e-48 2.08904e-48 2.08991e-48 2.09737e-48 2.10999e-48 2.12633e-48 2.145e-48 2.16487e-48 2.18505e-48 2.20498e-48 2.22436e-48 2.24311e-48 2.26129e-48 2.279e-48 2.29628e-48 2.31312e-48 2.32939e-48 2.34492e-48 2.35955e-48 2.37322e-48 2.38607e-48 2.39849e-48 2.41115e-48 2.42494e-48 2.4409e-48 2.46008e-48 2.4833e-48 2.51104e-48 2.54321e-48 2.57907e-48 2.61712e-48 2.65522e-48 2.69057e-48 2.72001e-48 2.74011e-48 2.74753e-48 2.73918e-48 2.71246e-48 2.66548e-48 2.59713e-48 2.50723e-48 2.39648e-48 2.26649e-48 2.11968e-48 1.95916e-48 1.78857e-48 1.61192e-48 1.43334e-48 1.25689e-48 1.08636e-48 9.25065e-49 7.75708e-49 6.4028e-49 5.20021e-49 4.1543e-49 3.26335e-49 2.51997e-49 1.91244e-49 1.4261e-49 1.04472e-49 7.51762e-50 5.31297e-50 3.68751e-50 2.51328e-50 1.68206e-50 1.10543e-50 7.13364e-51 4.52053e-51 2.81309e-51 1.71916e-51 1.03186e-51 6.08314e-52 3.52272e-52 2.00409e-52 1.12018e-52 6.15246e-53 3.32084e-53 1.76175e-53 9.18743e-54 4.71043e-54 2.37467e-54 1.1773e-54 5.74089e-55 2.75385e-55 1.29969e-55 6.0359e-56 2.75877e-56 1.24116e-56 5.49723e-57 2.39736e-57 1.02959e-57 4.3551e-58 1.81471e-58 7.44997e-59 3.01375e-59 1.20152e-59 4.72156e-60 1.82906e-60 6.98459e-61 2.62586e-61 9.61284e-62 3.12008e-62 0 
0 5.20388e-86 2.44814e-85 1.09107e-84 4.80793e-84 2.09892e-83 9.07766e-83 3.88923e-82 1.65056e-81 6.93809e-81 2.88841e-80 1.19083e-79 4.86162e-79 1.96523e-78 7.8652e-78 3.11627e-77 1.22222e-76 4.74477e-76 1.82303e-75 6.93177e-75 2.60812e-74 9.70959e-74 3.57622e-73 1.30303e-72 4.69622e-72 1.67403e-71 5.90136e-71 2.05718e-70 7.09049e-70 2.41612e-69 8.13862e-69 2.70973e-68 8.91646e-68 2.89936e-67 9.31548e-67 2.95698e-66 9.27213e-66 2.87175e-65 8.78402e-65 2.65318e-64 7.91242e-64 2.32951e-63 6.76982e-63 1.94171e-62 5.49579e-62 1.5348e-61 4.22852e-61 1.14915e-60 3.08004e-60 8.14066e-60 2.1214e-59 5.44979e-59 1.37995e-58 3.44354e-58 8.46714e-58 2.05111e-57 4.89429e-57 1.15019e-56 2.66168e-56 6.06422e-56 1.36005e-55 3.00206e-55 6.52074e-55 1.39351e-54 2.92946e-54 6.05688e-54 1.23146e-53 2.46166e-53 4.83722e-53 9.34216e-53 1.773e-52 3.30604e-52 6.05579e-52 1.0895e-51 1.92488e-51 3.33915e-51 5.68665e-51 9.50608e-51 1.55959e-50 2.5109e-50 3.96644e-50 6.14721e-50 9.34583e-50 1.39374e-49 2.03864e-49 2.92462e-49 4.11483e-49 5.67786e-49 7.68375e-49 1.01984e-48 1.3277e-48 1.69558e-48 2.1245e-48 2.61219e-48 3.15264e-48 3.73602e-48 4.34896e-48 4.97531e-48 5.59727e-48 6.19682e-48 6.75737e-48 7.2652e-48 7.71081e-48 8.08975e-48 8.40286e-48 8.65602e-48 8.85923e-48 9.0253e-48 9.16831e-48 9.3019e-48 9.43788e-48 9.58501e-48 9.74843e-48 9.92942e-48 1.01258e-47 1.03327e-47 1.05436e-47 1.07514e-47 1.09496e-47 1.11333e-47 1.12993e-47 1.1447e-47 1.15774e-47 1.16934e-47 1.17988e-47 1.18975e-47 1.1993e-47 1.20878e-47 1.21826e-47 1.22768e-47 1.23679e-47 1.24517e-47 1.25233e-47 1.25767e-47 1.2606e-47 1.26054e-47 1.25702e-47 1.24967e-47 1.23831e-47 1.22293e-47 1.2037e-47 1.18103e-47 1.15546e-47 1.12772e-47 1.09864e-47 1.06911e-47 1.04008e-47 1.01245e-47 9.87059e-48 9.64637e-48 9.45754e-48 9.3079e-48 9.19921e-48 9.13108e-48 9.10108e-48 9.10507e-48 9.13758e-48 9.19244e-48 9.26329e-48 9.34423e-48 9.43027e-48 9.51762e-48 9.60381e-48 9.68757e-48 9.7686e-48 9.84714e-48 9.92363e-48 9.99833e-48 1.00711e-47 1.01415e-47 1.02087e-47 1.02719e-47 1.03311e-47 1.03866e-47 1.04403e-47 1.04949e-47 1.05545e-47 1.06235e-47 1.07063e-47 1.08068e-47 1.09269e-47 1.10662e-47 1.12216e-47 1.13866e-47 1.15519e-47 1.17054e-47 1.18334e-47 1.1921e-47 1.19537e-47 1.1918e-47 1.18028e-47 1.15996e-47 1.13036e-47 1.0914e-47 1.04338e-47 9.86979e-48 9.23248e-48 8.53528e-48 7.79398e-48 7.02594e-48 6.24911e-48 5.4812e-48 4.7387e-48 4.0361e-48 3.38521e-48 2.7948e-48 2.27032e-48 1.81401e-48 1.42519e-48 1.10068e-48 8.35416e-49 6.23018e-49 4.56435e-49 3.28454e-49 2.32133e-49 1.61111e-49 1.09804e-49 7.34839e-50 4.82887e-50 3.11586e-50 1.97425e-50 1.22838e-50 7.50576e-51 4.50421e-51 2.65485e-51 1.53708e-51 8.7425e-52 4.88545e-52 2.68259e-52 1.44757e-52 7.67743e-53 4.00262e-53 2.05156e-53 1.03395e-53 5.12454e-54 2.49812e-54 1.19796e-54 5.65203e-55 2.62404e-55 1.19897e-55 5.3924e-56 2.3876e-56 1.04092e-56 4.46898e-57 1.88977e-57 7.87196e-58 3.23071e-58 1.30653e-58 5.20728e-59 2.04568e-59 7.92234e-60 3.02442e-60 1.13671e-60 4.16021e-61 1.35001e-61 0 
0 2.20844e-85 1.03899e-84 4.63072e-84 2.04068e-83 8.90916e-83 3.85337e-82 1.65104e-81 7.00737e-81 2.94575e-80 1.22645e-79 5.05681e-79 2.06464e-78 8.34674e-78 3.34085e-77 1.32381e-76 5.19263e-76 2.01606e-75 7.74698e-75 2.94603e-74 1.1086e-73 4.12771e-73 1.52052e-72 5.54099e-72 1.99732e-71 7.12084e-71 2.51069e-70 8.75362e-70 3.01766e-69 1.02847e-68 3.46504e-68 1.1539e-67 3.79773e-67 1.23517e-66 3.96939e-66 1.26027e-65 3.95273e-65 1.22452e-64 3.74646e-64 1.13189e-63 3.37645e-63 9.94334e-63 2.89043e-62 8.29264e-62 2.34781e-61 6.55862e-61 1.80751e-60 4.91364e-60 1.3174e-59 3.48307e-59 9.07962e-59 2.33329e-58 5.91018e-58 1.47534e-57 3.62892e-57 8.79394e-57 2.09914e-56 4.93492e-56 1.14242e-55 2.60381e-55 5.84187e-55 1.28998e-54 2.80302e-54 5.99248e-54 1.26023e-53 2.60662e-53 5.30173e-53 1.06021e-52 2.08413e-52 4.02662e-52 7.64478e-52 1.42602e-51 2.61304e-51 4.70279e-51 8.31161e-51 1.44233e-50 2.45713e-50 4.10878e-50 6.74304e-50 1.08592e-49 1.7159e-49 2.66001e-49 4.04509e-49 6.03379e-49 8.82749e-49 1.26662e-48 1.78237e-48 2.45976e-48 3.32912e-48 4.41906e-48 5.7534e-48 7.34785e-48 9.20673e-48 1.132e-47 1.36616e-47 1.61885e-47 1.88427e-47 2.1554e-47 2.42451e-47 2.68378e-47 2.926e-47 3.14526e-47 3.33743e-47 3.50061e-47 3.63518e-47 3.74372e-47 3.83058e-47 3.90133e-47 3.96209e-47 4.01877e-47 4.0765e-47 4.13909e-47 4.20875e-47 4.28605e-47 4.37005e-47 4.45864e-47 4.549e-47 4.63809e-47 4.7231e-47 4.80186e-47 4.87306e-47 4.93634e-47 4.99222e-47 5.04192e-47 5.08706e-47 5.12935e-47 5.17028e-47 5.2109e-47 5.2516e-47 5.29203e-47 5.33111e-47 5.36715e-47 5.39793e-47 5.42094e-47 5.43359e-47 5.43344e-47 5.41842e-47 5.38698e-47 5.33829e-47 5.27231e-47 5.18985e-47 5.09256e-47 4.98285e-47 4.86379e-47 4.73894e-47 4.6122e-47 4.48757e-47 4.36896e-47 4.25999e-47 4.16376e-47 4.08274e-47 4.01856e-47 3.97198e-47 3.94282e-47 3.93004e-47 3.93184e-47 3.94589e-47 3.96951e-47 3.99998e-47 4.03475e-47 4.07168e-47 4.10914e-47 4.14608e-47 4.18196e-47 4.21665e-47 4.25028e-47 4.28303e-47 4.31502e-47 4.34621e-47 4.37636e-47 4.40516e-47 4.43228e-47 4.45763e-47 4.48143e-47 4.5044e-47 4.52779e-47 4.55328e-47 4.5828e-47 4.6183e-47 4.66136e-47 4.71287e-47 4.77269e-47 4.83944e-47 4.91037e-47 4.98147e-47 5.04756e-47 5.10271e-47 5.14057e-47 5.15486e-47 5.1398e-47 5.09053e-47 5.00345e-47 4.87648e-47 4.70917e-47 4.50279e-47 4.26028e-47 3.98608e-47 3.68595e-47 3.36667e-47 3.03569e-47 2.70075e-47 2.36949e-47 2.04904e-47 1.74566e-47 1.46449e-47 1.20933e-47 9.82583e-48 7.85239e-48 6.17027e-48 4.76599e-48 3.61778e-48 2.69822e-48 1.97689e-48 1.42263e-48 1.00544e-48 6.97814e-49 4.75567e-49 3.18243e-49 2.09109e-49 1.34914e-49 8.54715e-50 5.31722e-50 3.24841e-50 1.949e-50 1.14853e-50 6.64814e-51 3.78038e-51 2.112e-51 1.15939e-51 6.2545e-52 3.31624e-52 1.72841e-52 8.85637e-53 4.46208e-53 2.21083e-53 1.0774e-53 5.16491e-54 2.43605e-54 1.1306e-54 5.16422e-55 2.32186e-55 1.02772e-55 4.47903e-56 1.92236e-56 8.12634e-57 3.38399e-57 1.38837e-57 5.61292e-58 2.23638e-58 8.7829e-59 3.40033e-59 1.29772e-59 4.87597e-60 1.78405e-60 5.78805e-61 0 
0 9.28277e-85 4.36739e-84 1.94662e-83 8.57892e-83 3.74558e-82 1.62014e-81 6.94222e-81 2.94664e-80 1.2388e-79 5.15811e-79 2.12695e-78 8.6849e-78 3.51139e-77 1.4056e-76 5.57031e-76 2.1852e-75 8.4851e-75 3.26093e-74 1.24023e-73 4.66768e-73 1.73818e-72 6.40389e-72 2.33402e-71 8.41464e-71 3.00048e-70 1.0581e-69 3.68978e-69 1.27222e-68 4.33681e-68 1.46141e-67 4.86768e-67 1.6024e-66 5.21278e-66 1.67558e-65 5.32118e-65 1.66934e-64 5.17277e-64 1.58303e-63 4.78394e-63 1.42745e-62 4.20487e-62 1.22266e-61 3.50884e-61 9.9372e-61 2.77682e-60 7.6551e-60 2.08168e-59 5.58305e-59 1.47659e-58 3.85047e-58 9.89844e-58 2.50814e-57 6.26325e-57 1.54114e-56 3.73603e-56 8.92139e-56 2.09815e-55 4.85904e-55 1.1079e-54 2.48665e-54 5.4931e-54 1.19408e-53 2.5538e-53 5.37285e-53 1.11175e-52 2.26215e-52 4.52552e-52 8.89967e-52 1.72013e-51 3.26705e-51 6.09654e-51 1.11756e-50 2.01206e-50 3.55737e-50 6.17538e-50 1.05239e-49 1.76038e-49 2.88993e-49 4.65548e-49 7.35837e-49 1.14101e-48 1.73559e-48 2.58947e-48 3.78923e-48 5.43804e-48 7.65366e-48 1.05639e-47 1.42993e-47 1.89826e-47 2.4716e-47 3.15669e-47 3.95533e-47 4.86316e-47 5.86886e-47 6.95392e-47 8.09329e-47 9.25669e-47 1.04109e-46 1.15222e-46 1.25596e-46 1.34978e-46 1.43191e-46 1.50154e-46 1.55885e-46 1.60495e-46 1.64172e-46 1.67157e-46 1.69712e-46 1.72093e-46 1.7452e-46 1.77156e-46 1.80097e-46 1.83368e-46 1.86927e-46 1.90686e-46 1.94523e-46 1.98308e-46 2.0192e-46 2.05267e-46 2.08292e-46 2.1098e-46 2.13354e-46 2.15464e-46 2.17379e-46 2.19174e-46 2.20913e-46 2.22638e-46 2.24368e-46 2.26088e-46 2.27751e-46 2.29286e-46 2.30598e-46 2.3158e-46 2.32122e-46 2.3212e-46 2.31485e-46 2.30152e-46 2.28084e-46 2.2528e-46 2.21775e-46 2.17638e-46 2.12972e-46 2.07907e-46 2.02597e-46 1.97205e-46 1.91903e-46 1.86857e-46 1.82222e-46 1.78129e-46 1.74684e-46 1.71956e-46 1.69978e-46 1.68741e-46 1.68202e-46 1.68283e-46 1.68884e-46 1.69892e-46 1.71191e-46 1.72671e-46 1.74242e-46 1.75834e-46 1.77402e-46 1.78925e-46 1.80397e-46 1.81824e-46 1.83214e-46 1.84571e-46 1.85895e-46 1.87176e-46 1.88399e-46 1.89552e-46 1.90628e-46 1.91638e-46 1.92613e-46 1.93605e-46 1.94686e-46 1.95938e-46 1.97445e-46 1.99274e-46 2.01464e-46 2.04009e-46 2.06851e-46 2.09873e-46 2.12904e-46 2.15725e-46 2.18081e-46 2.19703e-46 2.20323e-46 2.19694e-46 2.17608e-46 2.13911e-46 2.08513e-46 2.01394e-46 1.92605e-46 1.82271e-46 1.7058e-46 1.57776e-46 1.44147e-46 1.3001e-46 1.15697e-46 1.01534e-46 8.78257e-47 7.48414e-47 6.28021e-47 5.1872e-47 4.21548e-47 3.36946e-47 2.6481e-47 2.04571e-47 1.55304e-47 1.15839e-47 8.48763e-48 6.10817e-48 4.31697e-48 2.99607e-48 2.04176e-48 1.36621e-48 8.97616e-49 5.79058e-49 3.66796e-49 2.28148e-49 1.39355e-49 8.35938e-50 4.92502e-50 2.85013e-50 1.62028e-50 9.04966e-51 4.96645e-51 2.67846e-51 1.41974e-51 7.39732e-52 3.78919e-52 1.90848e-52 9.45287e-53 4.6051e-53 2.20689e-53 1.04053e-53 4.82761e-54 2.20434e-54 9.90743e-55 4.38379e-55 1.9099e-55 8.19436e-56 3.4628e-56 1.44151e-56 5.91218e-57 2.3894e-57 9.51707e-58 3.73643e-58 1.44611e-58 5.51728e-59 2.0724e-59 7.58048e-60 2.45879e-60 0 