# vtk DataFile Version 3.0
Gray-Scott Simulation Output
ASCII
DATASET STRUCTURED_POINTS
DIMENSIONS 256 256 1
SPACING 1.0 1.0 1.0
ORIGIN 0 0 0
POINT_DATA 65536
SCALARS u double
LOOKUP_TABLE default
0 0 0 0 0 0 0 0 0 0 0 0 0 0 0 0 0 0 0 0 0 0 0 0 0 0 0 0 0 0 0 0 0 0 0 0 0 0 0 0 0 0 0 0 0 0 0 0 0 0 0 0 0 0 0 0 0 0 0 0 0 0 0 0 0 0 0 0 0 0 0 0 0 0 0 0 0 0 0 0 0 0 0 0 0 0 0 0 0 0 0 0 0 0 0 0 0 0 0 0 0 0 0 0 0 0 0 0 0 0 0 0 0 0 0 0 0 0 0 0 0 0 0 0 0 0 0 0 0 0 0 0 0 0 0 0 0 0 0 0 0 0 0 0 0 0 0 0 0 0 0 0 0 0 0 0 0 0 0 0 0 0 0 0 0 0 0 0 0 0 0 0 0 0 0 0 0 0 0 0 0 0 0 0 0 0 0 0 0 0 0 0 0 0 0 0 0 0 0 0 0 0 0 0 0 0 0 0 0 0 0 0 0 0 0 0 0 0 0 0 0 0 0 0 0 0 0 0 0 0 0 0 0 0 0 0 0 0 0 0 0 0 0 0 0 0 0 0 0 0 0 0 0 0 0 0 
0 1.67587e-135 1.71849e-134 1.72801e-133 1.71944e-132 1.69301e-131 1.64939e-130 1.58977e-129 1.51581e-128 1.42959e-127 1.33348e-126 1.23004e-125 1.12193e-124 1.01175e-123 9.0196e-123 7.94805e-122 6.9221e-121 5.95752e-120 5.06626e-119 4.25645e-118 3.53253e-117 2.89564e-116 2.34403e-115 1.87361e-114 1.47852e-113 1.15171e-112 8.85448e-112 6.71762e-111 5.02842e-110 3.71313e-109 2.70437e-108 1.94239e-107 1.37554e-106 9.60281e-106 6.60738e-105 4.48005e-104 2.99278e-103 1.96932e-102 1.2762e-101 8.14308e-101 5.11483e-100 3.1619e-99 1.92327e-98 1.15081e-97 6.77224e-97 3.91847e-96 2.22866e-95 1.24566e-94 6.8401e-94 3.68901e-93 1.95351e-92 1.01543e-91 5.17937e-91 2.59154e-90 1.27159e-89 6.11648e-89 2.88313e-88 1.33131e-87 6.01976e-87 2.6644e-86 1.15389e-85 4.88761e-85 2.02398e-84 8.19032e-84 3.23729e-83 1.24923e-82 4.70402e-82 1.7276e-81 6.18489e-81 2.15726e-80 7.32671e-80 2.42158e-79 7.78418e-79 2.43208e-78 7.38107e-78 2.17444e-77 6.21395e-77 1.72138e-76 4.61913e-76 1.19978e-75 3.01419e-75 7.31877e-75 1.71619e-74 3.88337e-74 8.47285e-74 1.78109e-73 3.60445e-73 7.01716e-73 1.31322e-72 2.36083e-72 4.0745e-72 6.7472e-72 1.07155e-71 1.63152e-71 2.38114e-71 3.33108e-71 4.4677e-71 5.7476e-71 7.09791e-71 8.4238e-71 9.62259e-71 1.06015e-70 1.12944e-70 1.16739e-70 1.17553e-70 1.15923e-70 1.12676e-70 1.08797e-70 1.05289e-70 1.03055e-70 1.02782e-70 1.04869e-70 1.09365e-70 1.15964e-70 1.24048e-70 1.32776e-70 1.41234e-70 1.48588e-70 1.54227e-70 1.57864e-70 1.59553e-70 1.59655e-70 1.58735e-70 1.57442e-70 1.56382e-70 1.56025e-70 1.56646e-70 1.58315e-70 1.6092e-70 1.64229e-70 1.67951e-70 1.71796e-70 1.75504e-70 1.78847e-70 1.81608e-70 1.83556e-70 1.84441e-70 1.84015e-70 1.82087e-70 1.78573e-70 1.73543e-70 1.67223e-70 1.59959e-70 1.52148e-70 1.44169e-70 1.36329e-70 1.28846e-70 1.21871e-70 1.15531e-70 1.09979e-70 1.05414e-70 1.02072e-70 1.00168e-70 9.98218e-71 1.00991e-70 1.03438e-70 1.06754e-70 1.10432e-70 1.1397e-70 1.16963e-70 1.19168e-70 1.2053e-70 1.21163e-70 1.21306e-70 1.21275e-70 1.21405e-70 1.21998e-70 1.23263e-70 1.25265e-70 1.27897e-70 1.30872e-70 1.33772e-70 1.36124e-70 1.37517e-70 1.37704e-70 1.36683e-70 1.34728e-70 1.32359e-70 1.30259e-70 1.29155e-70 1.29689e-70 1.32291e-70 1.37096e-70 1.43904e-70 1.52192e-70 1.61188e-70 1.69975e-70 1.77625e-70 1.83327e-70 1.86484e-70 1.86758e-70 1.84067e-70 1.78528e-70 1.70383e-70 1.59942e-70 1.47543e-70 1.33556e-70 1.18405e-70 1.02585e-70 8.66555e-71 7.12088e-71 5.68066e-71 4.39141e-71 3.28459e-71 2.37401e-71 1.65642e-71 1.11483e-71 7.23349e-72 4.52289e-72 2.72467e-72 1.58126e-72 8.84095e-73 4.76287e-73 2.47297e-73 1.23793e-73 5.97684e-74 2.78452e-74 1.25243e-74 5.44151e-75 2.28507e-75 9.28019e-76 3.64718e-76 1.38794e-76 5.11767e-77 1.8295e-77 6.34487e-78 2.13605e-78 6.98489e-79 2.21988e-79 6.86076e-80 2.06319e-80 6.04045e-81 1.72266e-81 4.78808e-82 1.2977e-82 3.43131e-83 8.85572e-84 2.23189e-84 5.49547e-85 1.32255e-85 3.11228e-86 7.16452e-87 1.61403e-87 3.55976e-88 7.68918e-89 1.62723e-89 3.37504e-90 6.86313e-91 1.36875e-91 2.67808e-92 5.1423e-93 9.69301e-94 1.79409e-94 3.25893e-95 5.6503e-96 0 
0 1.71877e-134 1.76184e-133 1.77095e-132 1.76151e-131 1.7338e-130 1.68851e-129 1.62688e-128 1.55063e-127 1.4619e-126 1.36312e-125 1.25693e-124 1.14604e-123 1.03312e-122 9.20685e-122 8.11016e-121 7.06079e-120 6.07474e-119 5.16413e-118 4.33715e-117 3.59826e-116 2.94849e-115 2.38599e-114 1.90649e-113 1.50395e-112 1.17113e-111 9.00069e-111 6.82624e-110 5.10802e-109 3.77065e-108 2.74536e-107 1.97118e-106 1.39547e-105 9.73878e-105 6.69877e-104 4.54056e-103 3.03223e-102 1.99465e-101 1.29221e-100 8.24266e-100 5.17578e-99 3.1986e-98 1.945e-97 1.16346e-96 6.84465e-96 3.9592e-95 2.25116e-94 1.25787e-93 6.90517e-93 3.72305e-92 1.97099e-91 1.02423e-90 5.22282e-90 2.61257e-89 1.28157e-88 6.16285e-88 2.90423e-87 1.3407e-86 6.06073e-86 2.68187e-85 1.16118e-84 4.91728e-84 2.03578e-83 8.23618e-83 3.25468e-82 1.25566e-81 4.72721e-81 1.73574e-80 6.21275e-80 2.16654e-79 7.35677e-79 2.43105e-78 7.81314e-78 2.44069e-77 7.40587e-77 2.18137e-76 6.23273e-76 1.72631e-75 4.63164e-75 1.20285e-74 3.02149e-74 7.33549e-74 1.71989e-73 3.89127e-73 8.48911e-73 1.78431e-72 3.61061e-72 7.0285e-72 1.31522e-71 2.36426e-71 4.08013e-71 6.7561e-71 1.07291e-70 1.63352e-70 2.38398e-70 3.33498e-70 4.47289e-70 5.7543e-70 7.10631e-70 8.43405e-70 9.63477e-70 1.06156e-69 1.13104e-69 1.16918e-69 1.17747e-69 1.1613e-69 1.12895e-69 1.09024e-69 1.05523e-69 1.03291e-69 1.03018e-69 1.05103e-69 1.09594e-69 1.16188e-69 1.24265e-69 1.32987e-69 1.4144e-69 1.4879e-69 1.54429e-69 1.58067e-69 1.59759e-69 1.59866e-69 1.58953e-69 1.57665e-69 1.56609e-69 1.56255e-69 1.56878e-69 1.58545e-69 1.61147e-69 1.64451e-69 1.68167e-69 1.72006e-69 1.75708e-69 1.79045e-69 1.81802e-69 1.83746e-69 1.8463e-69 1.84205e-69 1.82278e-69 1.78768e-69 1.73743e-69 1.6743e-69 1.60171e-69 1.52365e-69 1.44388e-69 1.36549e-69 1.29065e-69 1.22087e-69 1.15743e-69 1.10185e-69 1.05615e-69 1.02268e-69 1.0036e-69 1.00012e-69 1.0118e-69 1.03629e-69 1.06949e-69 1.10632e-69 1.14176e-69 1.17174e-69 1.19385e-69 1.20753e-69 1.21389e-69 1.21534e-69 1.21505e-69 1.21636e-69 1.22228e-69 1.23491e-69 1.25492e-69 1.28122e-69 1.31096e-69 1.33994e-69 1.36347e-69 1.37741e-69 1.37931e-69 1.36914e-69 1.34964e-69 1.32599e-69 1.30502e-69 1.29401e-69 1.29934e-69 1.32534e-69 1.37333e-69 1.44131e-69 1.52409e-69 1.61393e-69 1.70168e-69 1.77808e-69 1.83503e-69 1.86654e-69 1.86926e-69 1.84236e-69 1.78698e-69 1.70556e-69 1.60115e-69 1.47714e-69 1.33723e-69 1.18564e-69 1.02733e-69 8.67893e-70 7.13262e-70 5.69063e-70 4.39959e-70 3.29107e-70 2.37896e-70 1.66006e-70 1.1174e-70 7.25091e-71 4.53426e-71 2.73181e-71 1.58557e-71 8.86598e-72 4.77686e-72 2.4805e-72 1.24183e-72 5.99635e-73 2.79392e-73 1.2568e-73 5.46117e-74 2.29361e-74 9.31607e-75 3.66176e-75 1.39368e-75 5.13957e-76 1.8376e-76 6.37393e-77 2.14617e-77 7.01913e-78 2.23113e-78 6.89675e-79 2.07438e-79 6.07433e-80 1.73265e-80 4.81678e-81 1.30574e-81 3.45326e-82 8.91425e-83 2.24712e-83 5.53418e-84 1.33216e-84 3.13561e-85 7.2199e-86 1.62689e-86 3.58898e-87 7.75419e-88 1.64139e-88 3.40528e-89 6.92639e-90 1.38172e-90 2.70417e-91 5.1938e-92 9.79272e-93 1.81304e-93 3.29426e-94 5.71306e-95 0 
0 1.7286e-133 1.77126e-132 1.77975e-131 1.7696e-130 1.74111e-129 1.695e-128 1.63252e-127 1.55543e-126 1.46588e-125 1.36633e-124 1.25943e-123 1.1479e-122 1.03442e-121 9.21509e-121 8.11449e-120 7.06202e-119 6.07362e-118 5.16134e-117 4.33327e-116 3.59376e-115 2.94378e-114 2.38134e-113 1.90211e-112 1.49998e-111 1.16763e-110 8.9707e-110 6.80118e-109 5.08753e-108 3.75426e-107 2.73251e-106 1.9613e-105 1.38802e-104 9.68356e-104 6.65861e-103 4.51187e-102 3.01211e-101 1.98078e-100 1.28281e-99 8.18014e-99 5.13491e-98 3.17236e-97 1.92845e-96 1.15321e-95 6.7823e-95 3.92196e-94 2.22933e-93 1.24531e-92 6.83422e-92 3.68374e-91 1.94962e-90 1.01284e-89 5.16334e-89 2.58211e-88 1.26629e-87 6.08775e-87 2.86809e-86 1.32368e-85 5.98225e-85 2.64649e-84 1.14557e-83 4.85004e-83 2.00747e-82 8.11975e-82 3.20794e-81 1.23735e-80 4.65727e-80 1.7097e-79 6.11827e-79 2.13316e-78 7.24199e-78 2.39266e-77 7.68832e-77 2.40126e-76 7.28497e-76 2.1454e-75 6.12894e-75 1.69729e-74 4.55311e-74 1.18228e-73 2.96941e-73 7.20809e-73 1.6898e-72 3.82275e-72 8.33869e-72 1.75251e-71 3.54591e-71 6.90192e-71 1.29143e-70 2.32131e-70 4.00574e-70 6.63253e-70 1.05323e-69 1.6035e-69 2.3401e-69 3.27353e-69 4.39044e-69 5.64826e-69 6.97549e-69 8.27907e-69 9.45821e-69 1.04218e-68 1.11049e-68 1.14806e-68 1.15635e-68 1.14064e-68 1.10904e-68 1.07117e-68 1.0369e-68 1.01505e-68 1.01238e-68 1.03279e-68 1.07678e-68 1.14137e-68 1.22049e-68 1.30593e-68 1.38875e-68 1.46077e-68 1.51604e-68 1.55172e-68 1.56835e-68 1.56945e-68 1.56055e-68 1.54798e-68 1.53768e-68 1.53424e-68 1.54034e-68 1.55667e-68 1.58215e-68 1.61449e-68 1.65087e-68 1.68844e-68 1.72467e-68 1.75734e-68 1.78431e-68 1.80335e-68 1.81199e-68 1.80783e-68 1.78897e-68 1.75459e-68 1.70539e-68 1.64355e-68 1.57244e-68 1.49595e-68 1.41778e-68 1.34094e-68 1.26755e-68 1.19912e-68 1.13688e-68 1.08234e-68 1.03748e-68 1.00462e-68 9.85873e-69 9.82436e-69 9.93891e-69 1.01791e-68 1.05049e-68 1.08666e-68 1.12146e-68 1.15092e-68 1.17265e-68 1.1861e-68 1.19238e-68 1.19383e-68 1.19355e-68 1.19484e-68 1.20064e-68 1.21301e-68 1.23261e-68 1.25838e-68 1.28751e-68 1.31592e-68 1.33899e-68 1.35267e-68 1.35456e-68 1.34463e-68 1.32555e-68 1.30241e-68 1.28189e-68 1.27112e-68 1.27635e-68 1.3018e-68 1.34879e-68 1.41535e-68 1.49639e-68 1.58435e-68 1.67027e-68 1.74506e-68 1.80081e-68 1.83165e-68 1.8343e-68 1.80793e-68 1.75365e-68 1.67385e-68 1.5715e-68 1.44991e-68 1.3127e-68 1.16401e-68 1.00868e-68 8.52231e-69 7.00467e-69 5.58916e-69 4.32163e-69 3.23311e-69 2.33732e-69 1.63119e-69 1.09809e-69 7.12638e-70 4.45687e-70 2.68547e-70 1.55883e-70 8.71742e-71 4.69731e-71 2.43945e-71 1.22141e-71 5.89838e-72 2.74858e-72 1.23655e-72 5.3738e-73 2.25719e-73 9.16929e-74 3.60454e-74 1.37209e-74 5.06065e-75 1.80965e-75 6.27791e-76 2.11417e-76 6.91558e-77 2.19859e-77 6.79731e-78 2.04483e-78 5.9889e-79 1.70861e-79 4.75085e-80 1.28812e-80 3.40736e-81 8.7976e-82 2.21819e-82 5.46412e-83 1.31559e-83 3.09731e-84 7.13335e-85 1.60777e-85 3.54766e-86 7.66678e-87 1.62329e-87 3.36858e-88 6.85352e-89 1.36754e-89 2.67713e-90 5.14323e-91 9.70003e-92 1.79637e-92 3.26489e-93 5.66362e-94 0 
0 1.72032e-132 1.76213e-131 1.76991e-130 1.75916e-129 1.73019e-128 1.68374e-127 1.62108e-126 1.54396e-125 1.45454e-124 1.35526e-123 1.24877e-122 1.13777e-121 1.02492e-120 9.12714e-120 8.03416e-119 6.9896e-118 6.00919e-117 5.10477e-116 4.28426e-115 3.55186e-114 2.90844e-113 2.35193e-112 1.87797e-111 1.48043e-110 1.15201e-109 8.84772e-109 6.70566e-108 5.01439e-107 3.69904e-106 2.69142e-105 1.93117e-104 1.36624e-103 9.52851e-103 6.54986e-102 4.43675e-101 2.96101e-100 1.94656e-99 1.26025e-98 8.03376e-98 5.04146e-97 3.11367e-96 1.8922e-95 1.13119e-94 6.65079e-94 3.84477e-93 2.18482e-92 1.22009e-91 6.69389e-91 3.60708e-90 1.90852e-89 9.91215e-89 5.05169e-88 2.5256e-87 1.23825e-86 5.95137e-86 2.80311e-85 1.29336e-84 5.84378e-84 2.58459e-83 1.11851e-82 4.73434e-82 1.95913e-81 7.92241e-81 3.12928e-80 1.20675e-79 4.54111e-79 1.66671e-78 5.96321e-78 2.07869e-77 7.0557e-77 2.33068e-76 7.4878e-76 2.33822e-75 7.09251e-75 2.08838e-74 5.96509e-74 1.65166e-73 4.43006e-73 1.15017e-72 2.88837e-72 7.01048e-72 1.64328e-71 3.71708e-71 8.10731e-71 1.70371e-70 3.44684e-70 6.70851e-70 1.25514e-69 2.25592e-69 3.89266e-69 6.44494e-69 1.02339e-68 1.55802e-68 2.27366e-68 3.18053e-68 4.26569e-68 5.48781e-68 6.77748e-68 8.04435e-68 9.19055e-68 1.01276e-67 1.07924e-67 1.11587e-67 1.12408e-67 1.10897e-67 1.07841e-67 1.04175e-67 1.00855e-67 9.87372e-68 9.84785e-68 1.00457e-67 1.04721e-67 1.10983e-67 1.18654e-67 1.26939e-67 1.3497e-67 1.41956e-67 1.47318e-67 1.50781e-67 1.52399e-67 1.5251e-67 1.51652e-67 1.50438e-67 1.49443e-67 1.49111e-67 1.49705e-67 1.51288e-67 1.53756e-67 1.5689e-67 1.60414e-67 1.64054e-67 1.67564e-67 1.70728e-67 1.73342e-67 1.75186e-67 1.76023e-67 1.7562e-67 1.73792e-67 1.7046e-67 1.6569e-67 1.59695e-67 1.52801e-67 1.45383e-67 1.378e-67 1.30344e-67 1.23222e-67 1.16579e-67 1.10535e-67 1.05238e-67 1.0088e-67 9.7686e-68 9.58631e-68 9.55273e-68 9.66385e-68 9.89712e-68 1.02136e-67 1.05651e-67 1.09034e-67 1.11899e-67 1.14013e-67 1.15323e-67 1.15936e-67 1.16079e-67 1.16053e-67 1.16178e-67 1.1674e-67 1.1794e-67 1.1984e-67 1.22338e-67 1.25164e-67 1.2792e-67 1.30158e-67 1.31488e-67 1.31673e-67 1.30713e-67 1.28867e-67 1.26625e-67 1.24638e-67 1.23595e-67 1.24102e-67 1.26568e-67 1.31122e-67 1.37573e-67 1.45426e-67 1.5395e-67 1.62275e-67 1.69523e-67 1.74924e-67 1.77912e-67 1.78167e-67 1.75609e-67 1.70344e-67 1.62602e-67 1.52671e-67 1.40871e-67 1.27551e-67 1.13115e-67 9.8031e-68 8.28349e-68 6.80913e-68 5.43375e-68 4.20194e-68 3.14393e-68 2.27311e-68 1.58655e-68 1.06816e-68 6.9329e-69 4.33633e-69 2.61311e-69 1.51699e-69 8.48428e-70 4.57215e-70 2.3747e-70 1.18911e-70 5.74301e-71 2.67647e-71 1.20424e-71 5.23398e-72 2.19872e-72 8.93284e-73 3.51203e-73 1.33705e-73 4.93208e-74 1.76392e-74 6.12017e-75 2.06135e-75 6.74388e-76 2.14435e-76 6.63073e-77 1.99506e-77 5.84418e-78 1.66762e-78 4.63776e-79 1.25771e-79 3.32756e-80 8.59331e-81 2.16713e-81 5.33949e-82 1.28586e-82 3.028e-83 6.97533e-84 1.57252e-84 3.47069e-85 7.50227e-86 1.58885e-86 3.29793e-87 6.71148e-88 1.33955e-88 2.62301e-89 5.0406e-90 9.50901e-91 1.76148e-91 3.20235e-92 5.5566e-93 0 
0 1.69419e-131 1.73472e-130 1.74172e-129 1.7305e-128 1.70137e-127 1.65508e-126 1.5929e-125 1.51656e-124 1.4282e-123 1.33024e-122 1.22526e-121 1.11595e-120 1.0049e-119 8.94565e-119 7.87158e-118 6.84571e-117 5.88339e-116 4.99614e-115 4.19161e-114 3.47384e-113 2.84355e-112 2.29866e-111 1.8348e-110 1.4459e-109 1.12476e-108 8.63548e-108 6.54259e-107 4.8908e-106 3.60667e-105 2.62334e-104 1.8817e-103 1.33081e-102 9.27836e-102 6.37585e-101 4.3175e-100 2.8805e-99 1.89303e-98 1.22522e-97 7.808e-97 4.89828e-96 3.02431e-95 1.83734e-94 1.09807e-93 6.45413e-93 3.72999e-92 2.11898e-91 1.18298e-90 6.48846e-90 3.4954e-89 1.84891e-88 9.59997e-88 4.89127e-87 2.44475e-86 1.19829e-85 5.75785e-85 2.71127e-84 1.25068e-83 5.64952e-83 2.49807e-82 1.08081e-81 4.57371e-81 1.89222e-80 7.65015e-80 3.02108e-79 1.16477e-78 4.38225e-78 1.60807e-77 5.75229e-77 2.00477e-76 6.80354e-76 2.24697e-75 7.21761e-75 2.25347e-74 6.83429e-74 2.01202e-73 5.74613e-73 1.5908e-72 4.26621e-72 1.10748e-71 2.78081e-71 6.7486e-71 1.58171e-70 3.57742e-70 7.80189e-70 1.63937e-69 3.31638e-69 6.45407e-69 1.20745e-68 2.17005e-68 3.74427e-68 6.19893e-68 9.84287e-68 1.49843e-67 2.18665e-67 3.05877e-67 4.10238e-67 5.27776e-67 6.51822e-67 7.73691e-67 8.83978e-67 9.74175e-67 1.03822e-66 1.07358e-66 1.08162e-66 1.06724e-66 1.03799e-66 1.00286e-66 9.71024e-67 9.50708e-67 9.48223e-67 9.672e-67 1.00812e-66 1.0682e-66 1.14182e-66 1.22133e-66 1.29842e-66 1.36548e-66 1.41698e-66 1.45026e-66 1.46582e-66 1.46694e-66 1.45876e-66 1.44715e-66 1.43763e-66 1.43447e-66 1.44018e-66 1.45537e-66 1.47905e-66 1.5091e-66 1.54289e-66 1.57779e-66 1.61145e-66 1.64179e-66 1.66685e-66 1.68453e-66 1.69256e-66 1.68869e-66 1.67115e-66 1.63919e-66 1.59343e-66 1.53591e-66 1.46974e-66 1.39853e-66 1.32573e-66 1.25413e-66 1.18572e-66 1.12188e-66 1.06379e-66 1.01287e-66 9.70957e-67 9.40233e-67 9.22687e-67 9.19438e-67 9.30108e-67 9.52531e-67 9.82967e-67 1.01677e-66 1.04933e-66 1.0769e-66 1.09726e-66 1.10989e-66 1.11581e-66 1.1172e-66 1.11697e-66 1.11817e-66 1.12356e-66 1.13507e-66 1.1533e-66 1.17728e-66 1.20441e-66 1.23087e-66 1.25237e-66 1.26516e-66 1.26696e-66 1.25778e-66 1.24008e-66 1.2186e-66 1.19955e-66 1.18954e-66 1.19441e-66 1.21807e-66 1.26175e-66 1.32363e-66 1.39895e-66 1.48071e-66 1.56056e-66 1.63007e-66 1.68188e-66 1.71053e-66 1.71296e-66 1.68839e-66 1.63784e-66 1.56349e-66 1.46812e-66 1.35476e-66 1.22679e-66 1.08805e-66 9.4306e-67 7.96962e-67 6.55186e-67 5.22905e-67 4.04411e-67 3.02619e-67 2.18823e-67 1.52748e-67 1.0285e-67 6.67624e-68 4.17624e-68 2.5169e-68 1.46129e-68 8.17356e-69 4.40514e-69 2.28818e-69 1.1459e-69 5.53489e-70 2.57975e-70 1.16084e-70 5.04591e-71 2.11995e-71 8.61383e-72 3.38702e-72 1.28962e-72 4.75773e-73 1.70179e-73 5.90544e-74 1.98932e-74 6.50921e-75 2.07005e-75 6.40202e-76 1.92657e-76 5.64452e-77 1.61094e-77 4.48094e-78 1.21541e-78 3.21628e-79 8.30757e-80 2.0955e-80 5.16408e-81 1.24389e-81 2.9298e-82 6.75061e-83 1.5222e-83 3.36043e-84 7.26565e-85 1.53911e-85 3.19547e-86 6.5046e-87 1.29858e-87 2.54346e-88 4.889e-89 9.22548e-90 1.70942e-90 3.10855e-91 5.39524e-92 0 
0 1.65084e-130 1.68971e-129 1.6959e-128 1.68435e-127 1.65538e-126 1.60975e-125 1.5487e-124 1.47394e-123 1.38756e-122 1.29191e-121 1.18953e-120 1.08301e-119 9.74886e-119 8.67537e-118 7.63103e-117 6.63415e-116 5.69956e-115 4.83832e-114 4.05778e-113 3.36175e-112 2.75085e-111 2.22295e-110 1.77376e-109 1.39732e-108 1.0866e-107 8.33968e-107 6.31636e-106 4.72011e-105 3.47963e-104 2.5301e-103 1.81423e-102 1.28267e-101 8.93988e-101 6.14128e-100 4.15733e-99 2.77277e-98 1.82166e-97 1.17866e-96 7.50897e-96 4.70925e-95 2.90672e-94 1.76537e-93 1.05474e-92 6.19766e-92 3.58073e-91 2.0336e-90 1.13499e-89 6.22352e-89 3.35175e-88 1.77244e-87 9.20042e-87 4.68645e-86 2.34176e-85 1.14752e-84 5.51246e-84 2.59508e-83 1.19678e-82 5.40476e-82 2.38928e-81 1.0335e-80 4.3725e-80 1.80858e-79 7.31037e-79 2.88628e-78 1.11257e-77 4.18499e-77 1.53538e-76 5.4912e-76 1.91342e-75 6.49234e-75 2.14382e-74 6.88508e-74 2.14929e-73 6.5173e-73 1.91841e-72 5.47796e-72 1.51635e-71 4.06599e-71 1.05537e-70 2.64963e-70 6.4295e-70 1.50676e-69 3.40754e-69 7.43069e-69 1.56123e-68 3.15804e-68 6.14545e-68 1.14963e-67 2.06601e-67 3.56455e-67 5.90112e-67 9.36963e-67 1.42634e-66 2.08141e-66 2.91152e-66 3.90489e-66 5.02374e-66 6.20465e-66 7.365e-66 8.41532e-66 9.27466e-66 9.88532e-66 1.02231e-65 1.0301e-65 1.01656e-65 9.88865e-66 9.55544e-66 9.25328e-66 9.06039e-66 9.03676e-66 9.21692e-66 9.60547e-66 1.01761e-65 1.08753e-65 1.16306e-65 1.23629e-65 1.30001e-65 1.34895e-65 1.38059e-65 1.39542e-65 1.39654e-65 1.3888e-65 1.37782e-65 1.36881e-65 1.36583e-65 1.37126e-65 1.38569e-65 1.40817e-65 1.43669e-65 1.46876e-65 1.50188e-65 1.53382e-65 1.56262e-65 1.5864e-65 1.60318e-65 1.6108e-65 1.60712e-65 1.59047e-65 1.56013e-65 1.51668e-65 1.46205e-65 1.3992e-65 1.33155e-65 1.26237e-65 1.19432e-65 1.12928e-65 1.06857e-65 1.01331e-65 9.6486e-66 9.24971e-66 8.95719e-66 8.79004e-66 8.75895e-66 8.86034e-66 9.07366e-66 9.36334e-66 9.68518e-66 9.99517e-66 1.02578e-65 1.04519e-65 1.05724e-65 1.0629e-65 1.06425e-65 1.06403e-65 1.06518e-65 1.0703e-65 1.08122e-65 1.09854e-65 1.12132e-65 1.1471e-65 1.17224e-65 1.19268e-65 1.20484e-65 1.20659e-65 1.19789e-65 1.18111e-65 1.16073e-65 1.14265e-65 1.13315e-65 1.13778e-65 1.16024e-65 1.20171e-65 1.26045e-65 1.33195e-65 1.40956e-65 1.48536e-65 1.55135e-65 1.60052e-65 1.62771e-65 1.63e-65 1.60664e-65 1.55861e-65 1.48795e-65 1.3973e-65 1.28953e-65 1.16783e-65 1.03587e-65 8.97932e-66 7.5891e-66 6.23976e-66 4.98054e-66 3.85237e-66 2.88305e-66 2.08497e-66 1.45557e-66 9.80188e-67 6.36331e-67 3.98091e-67 2.39942e-67 1.39322e-67 7.79359e-68 4.20076e-68 2.18223e-68 1.09295e-68 5.27962e-69 2.46101e-69 1.10753e-69 4.81465e-70 2.02301e-70 8.22084e-71 3.23286e-71 1.23107e-71 4.5423e-72 1.62495e-72 5.63954e-73 1.90001e-73 6.21789e-74 1.9777e-74 6.11738e-75 1.84121e-75 5.39534e-76 1.54009e-76 4.28463e-77 1.16237e-77 3.07652e-78 7.94812e-79 2.00523e-79 4.94264e-80 1.1908e-80 2.80535e-81 6.46529e-82 1.45819e-82 3.21986e-83 6.96334e-84 1.47542e-84 3.06399e-85 6.23848e-86 1.24577e-86 2.44063e-87 4.69256e-88 8.85712e-89 1.6416e-89 2.98602e-90 5.18391e-91 0 
0 1.59145e-129 1.62833e-128 1.6337e-127 1.62196e-126 1.59348e-125 1.54899e-124 1.48969e-123 1.41727e-122 1.33372e-121 1.24133e-120 1.14255e-119 1.03986e-118 9.35708e-118 8.32375e-117 7.31913e-116 6.36075e-115 5.46275e-114 4.63566e-113 3.88646e-112 3.2187e-111 2.63288e-110 2.12689e-109 1.69653e-108 1.33603e-107 1.03859e-106 7.96849e-106 6.03321e-105 4.50702e-104 3.32145e-103 2.41429e-102 1.73062e-101 1.22316e-100 8.5224e-100 5.85263e-99 3.96068e-98 2.64078e-97 1.73441e-96 1.12186e-95 7.14492e-95 4.47958e-94 2.76413e-93 1.67827e-92 1.00241e-91 5.88844e-91 3.4011e-90 1.93103e-89 1.07745e-88 5.90634e-88 3.18005e-87 1.68119e-86 8.72445e-86 4.44284e-85 2.21945e-84 1.08731e-83 5.22192e-83 2.45769e-82 1.13315e-81 5.11618e-81 2.26118e-80 9.77867e-80 4.1362e-79 1.71046e-78 6.91231e-78 2.72855e-77 1.05156e-76 3.95469e-76 1.45061e-75 5.18705e-75 1.80711e-74 6.13053e-74 2.024e-73 6.49919e-73 2.0285e-72 6.1501e-72 1.81005e-71 5.16783e-71 1.4303e-70 3.83478e-70 9.95233e-70 2.49836e-69 6.06177e-69 1.42043e-68 3.21199e-68 7.00363e-68 1.47138e-67 2.97606e-67 5.7909e-67 1.08323e-66 1.94658e-66 3.35832e-66 5.55946e-66 8.82684e-66 1.34367e-65 1.96074e-65 2.74271e-65 3.67848e-65 4.73252e-65 5.84513e-65 6.93853e-65 7.92848e-65 8.73875e-65 9.31499e-65 9.63442e-65 9.70914e-65 9.58297e-65 9.32335e-65 9.0106e-65 8.7268e-65 8.54556e-65 8.52331e-65 8.69258e-65 9.0577e-65 9.594e-65 1.02512e-64 1.09612e-64 1.16496e-64 1.22488e-64 1.27091e-64 1.30069e-64 1.31467e-64 1.31576e-64 1.30853e-64 1.29824e-64 1.28981e-64 1.28703e-64 1.29214e-64 1.3057e-64 1.32682e-64 1.35361e-64 1.38373e-64 1.41483e-64 1.44483e-64 1.47187e-64 1.4942e-64 1.50996e-64 1.51712e-64 1.51366e-64 1.49802e-64 1.46952e-64 1.42869e-64 1.37734e-64 1.31827e-64 1.25467e-64 1.18962e-64 1.1256e-64 1.06441e-64 1.00728e-64 9.55263e-65 9.09637e-65 8.72066e-65 8.44505e-65 8.28746e-65 8.25801e-65 8.35338e-65 8.55422e-65 8.82705e-65 9.13029e-65 9.42244e-65 9.67007e-65 9.85315e-65 9.96689e-65 1.00204e-64 1.00333e-64 1.00314e-64 1.00422e-64 1.00903e-64 1.01929e-64 1.03557e-64 1.05698e-64 1.08122e-64 1.10486e-64 1.12409e-64 1.13555e-64 1.13721e-64 1.12906e-64 1.11331e-64 1.09418e-64 1.0772e-64 1.06828e-64 1.07263e-64 1.09374e-64 1.13269e-64 1.18787e-64 1.25505e-64 1.32795e-64 1.39916e-64 1.46114e-64 1.50733e-64 1.53287e-64 1.53501e-64 1.51304e-64 1.46786e-64 1.40141e-64 1.31613e-64 1.21474e-64 1.10021e-64 9.75996e-65 8.46127e-65 7.15209e-65 5.88114e-65 4.69486e-65 3.63183e-65 2.71832e-65 1.96607e-65 1.37272e-65 9.24501e-66 6.00244e-66 3.75553e-66 2.26381e-66 1.3146e-66 7.35452e-67 3.96447e-67 2.05967e-67 1.03166e-67 4.98403e-68 2.32344e-68 1.04572e-68 4.5464e-69 1.91049e-69 7.76443e-70 3.05371e-70 1.16298e-70 4.29158e-71 1.53545e-71 5.3296e-72 1.79584e-72 5.87778e-73 1.8698e-73 5.78448e-74 1.74129e-74 5.10335e-75 1.45698e-75 4.05413e-76 1.10004e-76 2.91207e-77 7.5247e-78 1.89878e-78 4.68117e-79 1.12803e-79 2.65805e-80 6.12714e-81 1.38223e-81 3.0528e-82 6.60357e-83 1.39952e-83 2.90705e-84 5.92039e-85 1.18254e-85 2.31734e-86 4.45664e-87 8.41401e-88 1.55988e-88 2.83813e-89 4.92841e-90 0 
0 1.5177e-128 1.55231e-127 1.55684e-126 1.54509e-125 1.5174e-124 1.47449e-123 1.41753e-122 1.34812e-121 1.26819e-120 1.17991e-119 1.08563e-118 9.87701e-118 8.88456e-117 7.90061e-116 6.9446e-115 6.03313e-114 5.17956e-113 4.39382e-112 3.68243e-111 3.04867e-110 2.49294e-109 2.01315e-108 1.60526e-107 1.26372e-106 9.82048e-106 7.53219e-105 5.70098e-104 4.25742e-103 3.13648e-102 2.2791e-101 1.63318e-100 1.15393e-99 8.03744e-99 5.51785e-98 3.73295e-97 2.48817e-96 1.63367e-95 1.05637e-94 6.72583e-94 4.21556e-93 2.60045e-92 1.57843e-91 9.42499e-91 5.53492e-90 3.196e-89 1.81407e-88 1.01191e-87 5.54554e-87 2.98499e-86 1.57765e-85 8.18496e-85 4.16703e-84 2.08114e-83 1.01929e-82 4.89407e-82 2.30283e-81 1.0615e-80 4.79155e-80 2.11722e-79 9.15406e-79 3.87115e-78 1.60051e-77 6.46663e-77 2.5521e-76 9.83359e-76 3.6975e-75 1.35602e-74 4.84792e-74 1.68866e-73 5.72772e-73 1.8907e-72 6.07019e-72 1.89432e-71 5.74241e-71 1.68983e-70 4.82392e-70 1.33495e-69 3.57868e-69 9.28659e-69 2.33098e-68 5.65506e-68 1.325e-67 2.99592e-67 6.53193e-67 1.37217e-66 2.7752e-66 5.3997e-66 1.01e-65 1.81487e-65 3.13095e-65 5.18287e-65 8.22866e-65 1.25259e-64 1.82779e-64 2.55672e-64 3.42906e-64 4.4117e-64 5.44903e-64 6.46861e-64 7.39194e-64 8.148e-64 8.68611e-64 8.985e-64 9.05591e-64 8.93959e-64 8.69881e-64 8.40833e-64 8.14457e-64 7.97604e-64 7.95531e-64 8.11267e-64 8.45219e-64 8.95093e-64 9.56215e-64 1.02226e-63 1.0863e-63 1.14205e-63 1.18488e-63 1.21262e-63 1.22566e-63 1.22671e-63 1.22003e-63 1.2105e-63 1.20268e-63 1.20012e-63 1.20488e-63 1.21749e-63 1.23712e-63 1.26202e-63 1.29001e-63 1.31892e-63 1.34679e-63 1.37192e-63 1.39267e-63 1.40732e-63 1.41397e-63 1.41076e-63 1.39622e-63 1.36971e-63 1.33175e-63 1.28401e-63 1.22906e-63 1.16989e-63 1.10936e-63 1.04978e-63 9.92811e-64 9.39605e-64 8.91155e-64 8.48641e-64 8.13625e-64 7.87927e-64 7.73226e-64 7.70466e-64 7.79341e-64 7.98053e-64 8.23483e-64 8.51754e-64 8.79e-64 9.02101e-64 9.1919e-64 9.29817e-64 9.34827e-64 9.36045e-64 9.35875e-64 9.36878e-64 9.4135e-64 9.50893e-64 9.6603e-64 9.85948e-64 1.0085e-63 1.0305e-63 1.04841e-63 1.05908e-63 1.06065e-63 1.05309e-63 1.03847e-63 1.02069e-63 1.00491e-63 9.96629e-64 1.00067e-63 1.02029e-63 1.05651e-63 1.1078e-63 1.17024e-63 1.23801e-63 1.3042e-63 1.36182e-63 1.40475e-63 1.42848e-63 1.43045e-63 1.41001e-63 1.36797e-63 1.30613e-63 1.22675e-63 1.13235e-63 1.0257e-63 9.09994e-64 7.88998e-64 6.66999e-64 5.48537e-64 4.37945e-64 3.38825e-64 2.53632e-64 1.83465e-64 1.28111e-64 8.62897e-65 5.60307e-65 3.50602e-65 2.11361e-65 1.2275e-65 6.86786e-66 3.70247e-66 1.92372e-66 9.6365e-67 4.65588e-67 2.17066e-67 9.77041e-68 4.24822e-68 1.78536e-68 7.25662e-69 2.85429e-69 1.08715e-69 4.01221e-70 1.43566e-70 4.98386e-71 1.67955e-71 5.49791e-72 1.7492e-72 5.41218e-73 1.62946e-73 4.77636e-74 1.36385e-74 3.79562e-75 1.03007e-75 2.72734e-76 7.04865e-77 1.77899e-77 4.3867e-78 1.05729e-78 2.49186e-79 5.74524e-80 1.29636e-80 2.86377e-81 6.19607e-82 1.31346e-82 2.72892e-83 5.55894e-84 1.11061e-84 2.17693e-85 4.18766e-86 7.90818e-87 1.46649e-87 2.6689e-88 4.6357e-89 0 
0 1.43165e-127 1.46376e-126 1.46749e-125 1.45588e-124 1.42927e-123 1.38834e-122 1.33422e-121 1.26843e-120 1.19279e-119 1.10936e-118 1.02035e-117 9.2798e-117 8.3444e-116 7.41764e-115 6.51778e-114 5.66034e-113 4.85782e-112 4.11945e-111 3.45129e-110 2.85633e-109 2.33486e-108 1.88486e-107 1.50245e-106 1.18239e-105 9.18536e-105 7.04272e-104 5.32874e-103 3.97814e-102 2.92978e-101 2.12821e-100 1.52457e-99 1.07684e-98 7.49814e-98 5.14599e-97 3.4803e-96 2.31905e-95 1.52217e-94 9.83974e-94 6.26299e-93 3.9243e-92 2.42007e-91 1.46851e-90 8.76615e-90 5.14654e-89 2.97091e-88 1.68584e-87 9.4012e-87 5.15074e-86 2.77174e-85 1.46456e-84 7.59625e-84 3.86633e-83 1.93048e-82 9.45268e-82 4.53754e-81 2.13457e-80 9.83705e-80 4.43938e-79 1.96117e-78 8.4775e-78 3.58428e-77 1.4816e-76 5.98494e-76 2.36153e-75 9.09753e-75 3.42009e-74 1.25405e-73 4.48259e-73 1.56114e-72 5.29432e-72 1.74736e-71 5.60912e-71 1.75017e-70 5.30471e-70 1.56081e-69 4.45504e-69 1.23272e-68 3.30423e-68 8.57347e-68 2.15176e-67 5.21975e-67 1.22289e-66 2.76481e-66 6.02758e-66 1.26613e-65 2.56056e-65 4.98177e-65 9.31773e-65 1.67423e-64 2.8882e-64 4.78087e-64 7.59021e-64 1.15538e-63 1.68592e-63 2.35827e-63 3.16291e-63 4.06936e-63 5.02635e-63 5.9671e-63 6.81925e-63 7.5173e-63 8.01452e-63 8.29127e-63 8.35784e-63 8.25175e-63 8.03081e-63 7.76386e-63 7.52131e-63 7.36626e-63 7.34714e-63 7.49187e-63 7.80424e-63 8.26316e-63 8.82562e-63 9.43341e-63 1.00229e-62 1.05361e-62 1.09306e-62 1.11861e-62 1.13065e-62 1.13165e-62 1.12554e-62 1.1168e-62 1.10963e-62 1.10729e-62 1.11169e-62 1.12329e-62 1.14134e-62 1.16424e-62 1.18998e-62 1.21655e-62 1.24218e-62 1.26528e-62 1.28436e-62 1.29783e-62 1.30395e-62 1.30099e-62 1.28762e-62 1.26324e-62 1.22832e-62 1.18439e-62 1.13382e-62 1.07936e-62 1.02363e-62 9.68766e-63 9.16288e-63 8.67264e-63 8.22609e-63 7.83415e-63 7.51123e-63 7.27417e-63 7.13846e-63 7.11287e-63 7.1946e-63 7.3671e-63 7.60162e-63 7.86241e-63 8.11383e-63 8.32707e-63 8.48489e-63 8.58312e-63 8.62952e-63 8.64091e-63 8.63941e-63 8.64864e-63 8.68977e-63 8.77756e-63 8.91684e-63 9.10016e-63 9.30772e-63 9.51035e-63 9.67526e-63 9.77369e-63 9.78835e-63 9.71903e-63 9.58463e-63 9.42119e-63 9.27613e-63 9.19999e-63 9.23719e-63 9.41765e-63 9.75074e-63 1.02225e-62 1.07968e-62 1.14201e-62 1.20289e-62 1.25588e-62 1.29536e-62 1.31718e-62 1.31898e-62 1.30015e-62 1.26145e-62 1.2045e-62 1.13139e-62 1.04443e-62 9.46164e-63 8.39527e-63 7.27987e-63 6.15496e-63 5.06244e-63 4.04229e-63 3.12779e-63 2.34163e-63 1.69403e-63 1.18305e-63 7.96937e-64 5.17532e-64 3.23869e-64 1.95264e-64 1.13412e-64 6.34597e-65 3.42141e-65 1.77784e-65 8.90649e-66 4.30353e-66 2.00656e-66 9.03254e-67 3.92773e-67 1.65083e-67 6.71042e-68 2.63971e-68 1.00552e-68 3.71135e-69 1.32815e-69 4.61119e-70 1.55415e-70 5.08808e-71 1.61903e-71 5.0101e-72 1.50862e-72 4.42282e-73 1.2631e-73 3.51579e-74 9.5429e-75 2.52713e-75 6.53238e-76 1.64899e-76 4.06693e-77 9.80405e-78 2.31112e-78 5.32963e-79 1.20283e-79 2.65774e-80 5.75155e-81 1.2195e-81 2.5343e-82 5.16368e-83 1.03189e-83 2.02311e-84 3.89273e-85 7.35308e-86 1.3639e-86 2.48283e-87 4.31358e-88 0 