# vtk DataFile Version 3.0
Gray-Scott Simulation Output
ASCII
DATASET STRUCTURED_POINTS
DIMENSIONS 256 256 1
SPACING 1.0 1.0 1.0
ORIGIN 0 0 0
POINT_DATA 65536
SCALARS u double
LOOKUP_TABLE default
0 0 0 0 0 0 0 0 0 0 0 0 0 0 0 0 0 0 0 0 0 0 0 0 0 0 0 0 0 0 0 0 0 0 0 0 0 0 0 0 0 0 0 0 0 0 0 0 0 0 0 0 0 0 0 0 0 0 0 0 0 0 0 0 0 0 0 0 0 0 0 0 0 0 0 0 0 0 0 0 0 0 0 0 0 0 0 0 0 0 0 0 0 0 0 0 0 0 0 0 0 0 0 0 0 0 0 0 0 0 0 0 0 0 0 0 0 0 0 0 0 0 0 0 0 0 0 0 0 0 0 0 0 0 0 0 0 0 0 0 0 0 0 0 0 0 0 0 0 0 0 0 0 0 0 0 0 0 0 0 0 0 0 0 0 0 0 0 0 0 0 0 0 0 0 0 0 0 0 0 0 0 0 0 0 0 0 0 0 0 0 0 0 0 0 0 0 0 0 0 0 0 0 0 0 0 0 0 0 0 0 0 0 0 0 0 0 0 0 0 0 0 0 0 0 0 0 0 0 0 0 0 0 0 0 0 0 0 0 0 0 0 0 0 0 0 0 0 0 0 0 0 0 0 0 0 
0 7.0522e-118 5.46128e-117 4.1193e-116 3.07498e-115 2.27209e-114 1.66163e-113 1.20262e-112 8.61312e-112 6.10367e-111 4.27932e-110 2.96801e-109 2.03619e-108 1.38161e-107 9.27088e-107 6.15139e-106 4.03547e-105 2.61717e-104 1.67778e-103 1.06304e-102 6.65614e-102 4.11812e-101 2.51722e-100 1.51997e-99 9.06517e-99 5.33935e-98 3.10534e-97 1.7831e-96 1.01071e-95 5.65446e-95 3.1218e-94 1.70059e-93 9.13912e-93 4.84449e-92 2.53254e-91 1.30543e-90 6.63383e-90 3.32283e-89 1.64023e-88 7.97761e-88 3.82231e-87 1.80375e-86 8.3818e-86 3.83456e-85 1.72671e-84 7.65158e-84 3.3359e-83 1.43055e-82 6.03282e-82 2.50125e-81 1.0193e-80 4.08176e-80 1.60574e-79 6.20397e-79 2.35347e-78 8.76329e-78 3.20198e-77 1.14771e-76 4.03437e-76 1.3903e-75 4.69556e-75 1.55371e-74 5.03511e-74 1.59753e-73 4.9606e-73 1.50697e-72 4.47707e-72 1.30028e-71 3.69028e-71 1.02302e-70 2.76909e-70 7.31528e-70 1.88529e-69 4.73796e-69 1.16058e-68 2.76974e-68 6.43696e-68 1.45614e-67 3.20483e-67 6.85943e-67 1.42709e-66 2.88468e-66 5.6628e-66 1.0791e-65 1.9953e-65 3.57841e-65 6.2222e-65 1.04861e-64 1.71226e-64 2.70823e-64 4.1483e-64 6.15256e-64 8.83499e-64 1.22835e-63 1.65369e-63 2.15625e-63 2.72404e-63 3.33603e-63 3.96335e-63 4.57221e-63 5.12812e-63 5.60072e-63 5.96832e-63 6.22122e-63 6.36323e-63 6.41107e-63 6.39188e-63 6.33927e-63 6.28867e-63 6.27248e-63 6.31596e-63 6.43409e-63 6.62995e-63 6.89485e-63 7.21008e-63 7.55018e-63 7.88721e-63 8.19516e-63 8.45398e-63 8.65226e-63 8.78833e-63 8.86962e-63 8.91044e-63 8.92896e-63 8.94378e-63 8.97095e-63 9.02189e-63 9.1023e-63 9.21221e-63 9.34685e-63 9.4979e-63 9.65484e-63 9.80607e-63 9.93965e-63 1.00438e-62 1.01075e-62 1.01208e-62 1.00758e-62 9.96756e-63 9.79498e-63 9.56119e-63 9.27352e-63 8.94271e-63 8.58172e-63 8.20442e-63 7.82445e-63 7.45457e-63 7.1065e-63 6.79104e-63 6.51827e-63 6.29731e-63 6.13563e-63 6.03789e-63 6.00476e-63 6.03191e-63 6.10995e-63 6.22521e-63 6.36156e-63 6.50274e-63 6.63483e-63 6.74815e-63 6.83837e-63 6.90664e-63 6.95866e-63 7.00312e-63 7.04961e-63 7.10654e-63 7.17914e-63 7.26823e-63 7.36966e-63 7.47496e-63 7.57288e-63 7.65186e-63 7.70279e-63 7.72165e-63 7.71125e-63 7.68176e-63 7.64967e-63 7.63545e-63 7.66017e-63 7.74168e-63 7.89117e-63 8.11061e-63 8.39162e-63 8.71589e-63 9.05716e-63 9.38433e-63 9.6651e-63 9.86959e-63 9.97323e-63 9.95865e-63 9.81642e-63 9.54466e-63 9.14824e-63 8.63754e-63 8.02751e-63 7.33684e-63 6.58734e-63 5.80317e-63 5.00988e-63 4.23291e-63 3.4959e-63 2.8189e-63 2.21686e-63 1.69875e-63 1.26737e-63 9.19951e-64 6.49346e-64 4.45501e-64 2.9699e-64 1.92334e-64 1.20985e-64 7.39154e-65 4.38604e-65 2.52796e-65 1.4154e-65 7.6997e-66 4.07044e-66 2.09164e-66 1.04503e-66 5.07804e-67 2.40065e-67 1.10451e-67 4.94741e-68 2.15827e-68 9.17309e-69 3.79989e-69 1.53475e-69 6.04622e-70 2.3242e-70 8.72117e-71 3.19559e-71 1.14385e-71 4.00116e-72 1.36825e-72 4.57579e-73 1.49706e-73 4.79339e-74 1.50253e-74 4.6124e-75 1.38707e-75 4.08771e-76 1.18089e-76 3.34517e-77 9.29481e-78 2.53399e-78 6.78013e-79 1.78099e-79 4.59405e-80 1.16401e-80 2.89775e-81 7.08948e-82 1.70481e-82 4.02132e-83 8.89442e-84 0 
0 5.46235e-117 4.22915e-116 3.18921e-115 2.38015e-114 1.75828e-113 1.28559e-112 9.30244e-112 6.66092e-111 4.71922e-110 3.30795e-109 2.29381e-108 1.57332e-107 1.06732e-106 7.16039e-106 4.75005e-105 3.11551e-104 2.02013e-103 1.29477e-102 8.20205e-102 5.13464e-101 3.17615e-100 1.94107e-99 1.17184e-98 6.98764e-98 4.11493e-97 2.39278e-96 1.3737e-95 7.78509e-95 4.35464e-94 2.40376e-93 1.30922e-92 7.03468e-92 3.72834e-91 1.94874e-90 1.00435e-89 5.103e-89 2.55566e-88 1.26135e-87 6.13395e-87 2.93853e-86 1.3865e-85 6.44203e-85 2.94676e-84 1.32676e-83 5.87853e-83 2.56258e-82 1.0988e-81 4.63324e-81 1.92076e-80 7.82661e-80 3.13382e-79 1.23271e-78 4.76226e-78 1.80639e-77 6.72565e-77 2.45726e-76 8.80708e-76 3.09558e-75 1.06671e-74 3.60244e-74 1.19194e-73 3.86251e-73 1.22543e-72 3.80498e-72 1.15586e-71 3.43382e-71 9.97253e-71 2.83019e-70 7.84569e-70 2.1236e-69 5.60995e-69 1.44578e-68 3.63337e-68 8.90004e-68 2.12399e-67 4.93622e-67 1.11665e-66 2.45767e-66 5.26029e-66 1.0944e-65 2.21222e-65 4.3428e-65 8.27576e-65 1.53024e-64 2.74442e-64 4.77213e-64 8.04254e-64 1.31327e-63 2.07721e-63 3.18181e-63 4.71921e-63 6.77688e-63 9.42231e-63 1.26853e-62 1.65407e-62 2.08969e-62 2.55925e-62 3.04062e-62 3.50788e-62 3.93458e-62 4.29744e-62 4.57981e-62 4.77425e-62 4.88365e-62 4.92081e-62 4.90651e-62 4.8665e-62 4.82789e-62 4.81554e-62 4.84879e-62 4.93911e-62 5.08889e-62 5.2915e-62 5.53262e-62 5.7928e-62 6.05065e-62 6.28629e-62 6.48436e-62 6.63615e-62 6.74036e-62 6.80266e-62 6.83401e-62 6.84829e-62 6.8597e-62 6.88055e-62 6.91954e-62 6.98104e-62 7.06508e-62 7.16801e-62 7.28347e-62 7.40343e-62 7.51903e-62 7.62115e-62 7.70079e-62 7.74949e-62 7.75965e-62 7.72525e-62 7.6425e-62 7.51053e-62 7.33174e-62 7.11171e-62 6.85864e-62 6.58246e-62 6.29376e-62 6.00296e-62 5.71984e-62 5.45337e-62 5.21182e-62 5.00293e-62 4.83369e-62 4.70982e-62 4.63495e-62 4.60956e-62 4.63037e-62 4.69019e-62 4.77854e-62 4.88306e-62 4.9913e-62 5.09258e-62 5.17946e-62 5.24864e-62 5.30098e-62 5.34084e-62 5.37489e-62 5.41047e-62 5.454e-62 5.50953e-62 5.57768e-62 5.65529e-62 5.73586e-62 5.81082e-62 5.87129e-62 5.91032e-62 5.92481e-62 5.91693e-62 5.89442e-62 5.86991e-62 5.85905e-62 5.87794e-62 5.94025e-62 6.05452e-62 6.22228e-62 6.43711e-62 6.68501e-62 6.94591e-62 7.19603e-62 7.41066e-62 7.56695e-62 7.6461e-62 7.63482e-62 7.52586e-62 7.31777e-62 7.01423e-62 6.62316e-62 6.15594e-62 5.62687e-62 5.05261e-62 4.45167e-62 3.84359e-62 3.2479e-62 2.68272e-62 2.16346e-62 1.70161e-62 1.30406e-62 9.73013e-63 7.06356e-63 4.98626e-63 3.42125e-63 2.28093e-63 1.47726e-63 9.29305e-64 5.67788e-64 3.36933e-64 1.94205e-64 1.08739e-64 5.91549e-65 3.12729e-65 1.60702e-65 8.02917e-66 3.90161e-66 1.84451e-66 8.48651e-67 3.80136e-67 1.65833e-67 7.0483e-68 2.91974e-68 1.17928e-68 4.64588e-69 1.78593e-69 6.70149e-70 2.45559e-70 8.78987e-71 3.07477e-71 1.05149e-71 3.51657e-72 1.15056e-72 3.68408e-73 1.15486e-73 3.5453e-74 1.06622e-74 3.14234e-75 9.07836e-76 2.57184e-76 7.14656e-77 1.94847e-77 5.21387e-78 1.36968e-78 3.53337e-79 8.95343e-80 2.22912e-80 5.45417e-81 1.3117e-81 3.09437e-82 6.84485e-83 0 
0 4.12095e-116 3.18986e-115 2.40492e-114 1.7944e-113 1.32527e-112 9.68763e-112 7.00833e-111 5.01711e-110 3.55379e-109 2.49049e-108 1.72658e-107 1.184e-106 8.03034e-106 5.38622e-105 3.57235e-104 2.34257e-103 1.51863e-102 9.73144e-102 6.16335e-101 3.8576e-100 2.38573e-99 1.45772e-98 8.79873e-98 5.24562e-97 3.08849e-96 1.79559e-95 1.03066e-94 5.83993e-94 3.26602e-93 1.80253e-92 9.81583e-92 5.27333e-91 2.79437e-90 1.46033e-89 7.52507e-89 3.82283e-88 1.91424e-87 9.44632e-87 4.59307e-86 2.20004e-85 1.03791e-84 4.82173e-84 2.20529e-83 9.9279e-83 4.39825e-82 1.91706e-81 8.21913e-81 3.46532e-80 1.43643e-79 5.85247e-79 2.34313e-78 9.21594e-78 3.56002e-77 1.35025e-76 5.0269e-76 1.83647e-75 6.5816e-75 2.31319e-74 7.9705e-74 2.69161e-73 8.90524e-73 2.88561e-72 9.15451e-72 2.84238e-71 8.6341e-71 2.56494e-70 7.4489e-70 2.11393e-69 5.86001e-69 1.58611e-68 4.19001e-68 1.07983e-67 2.71369e-67 6.64727e-67 1.58637e-66 3.68681e-66 8.34023e-66 1.83564e-65 3.92899e-65 8.17441e-65 1.65241e-64 3.24389e-64 6.18179e-64 1.14308e-63 2.05011e-63 3.56493e-63 6.00817e-63 9.81105e-63 1.55186e-62 2.37715e-62 3.52585e-62 5.06331e-62 7.04002e-62 9.47825e-62 1.23594e-61 1.56148e-61 1.91242e-61 2.27221e-61 2.62151e-61 2.94055e-61 3.21193e-61 3.42322e-61 3.56884e-61 3.65094e-61 3.67905e-61 3.66869e-61 3.63906e-61 3.61038e-61 3.6012e-61 3.62595e-61 3.6932e-61 3.80475e-61 3.95567e-61 4.13529e-61 4.32913e-61 4.52126e-61 4.69686e-61 4.8445e-61 4.95766e-61 5.03539e-61 5.0819e-61 5.10535e-61 5.11606e-61 5.12463e-61 5.1402e-61 5.16927e-61 5.21508e-61 5.27766e-61 5.35429e-61 5.44024e-61 5.52955e-61 5.6156e-61 5.69162e-61 5.75092e-61 5.78718e-61 5.79476e-61 5.76915e-61 5.70754e-61 5.60926e-61 5.4761e-61 5.3122e-61 5.12366e-61 4.91788e-61 4.70273e-61 4.48599e-61 4.27493e-61 4.07624e-61 3.89612e-61 3.74031e-61 3.61406e-61 3.52164e-61 3.46577e-61 3.44682e-61 3.46236e-61 3.50702e-61 3.57298e-61 3.65102e-61 3.73185e-61 3.80748e-61 3.87236e-61 3.92403e-61 3.96311e-61 3.99286e-61 4.01825e-61 4.04476e-61 4.07719e-61 4.11855e-61 4.16931e-61 4.22714e-61 4.28719e-61 4.34307e-61 4.38816e-61 4.41729e-61 4.42815e-61 4.42232e-61 4.4056e-61 4.38736e-61 4.37928e-61 4.39334e-61 4.43972e-61 4.52479e-61 4.64969e-61 4.80963e-61 4.9942e-61 5.18845e-61 5.37467e-61 5.53446e-61 5.65078e-61 5.70965e-61 5.70115e-61 5.61986e-61 5.46467e-61 5.23831e-61 4.94664e-61 4.59813e-61 4.2034e-61 3.77485e-61 3.32629e-61 2.87231e-61 2.42746e-61 2.00531e-61 1.61737e-61 1.27225e-61 9.75135e-62 7.27667e-62 5.28303e-62 3.72973e-62 2.55932e-62 1.70643e-62 1.10526e-62 6.95329e-63 4.24857e-63 2.52127e-63 1.45329e-63 8.1375e-64 4.42699e-64 2.34042e-64 1.20269e-64 6.0091e-65 2.92003e-65 1.38047e-65 6.3515e-66 2.84504e-66 1.24114e-66 5.27517e-67 2.18523e-67 8.82617e-68 3.47717e-68 1.33668e-68 5.01579e-69 1.83793e-69 6.57905e-70 2.30145e-70 7.87055e-71 2.63227e-71 8.61262e-72 2.75785e-72 8.64544e-73 2.65418e-73 7.98263e-74 2.35274e-74 6.79756e-75 1.92583e-75 5.35178e-76 1.45923e-76 3.90502e-77 1.02593e-77 2.64681e-78 6.70751e-79 1.67011e-79 4.08679e-80 9.82951e-81 2.31907e-81 5.13035e-82 0 
0 3.07685e-115 2.38113e-114 1.79478e-113 1.33884e-112 9.88587e-112 7.22484e-111 5.22549e-110 3.73997e-109 2.64856e-108 1.8557e-107 1.28622e-106 8.8183e-106 5.97962e-105 4.00988e-104 2.65894e-103 1.74324e-102 1.12987e-101 7.23875e-101 4.58369e-100 2.86833e-99 1.77357e-98 1.08347e-97 6.5385e-97 3.89738e-96 2.29425e-95 1.33359e-94 7.65333e-94 4.33576e-93 2.42437e-92 1.33779e-91 7.28381e-91 3.91241e-90 2.07287e-89 1.0831e-88 5.58033e-88 2.83444e-87 1.4191e-86 7.0019e-86 3.40403e-85 1.63027e-84 7.69008e-84 3.57203e-83 1.63351e-82 7.35291e-82 3.25709e-81 1.4195e-80 6.08521e-80 2.56535e-79 1.06326e-78 4.33164e-78 1.73407e-77 6.8198e-77 2.63419e-76 9.99016e-76 3.71899e-75 1.35855e-74 4.86849e-74 1.71099e-73 5.89515e-73 1.99066e-72 6.58582e-72 2.13394e-71 6.76959e-71 2.10181e-70 6.38433e-70 1.89655e-69 5.50769e-69 1.56301e-68 4.33275e-68 1.17272e-67 3.09795e-67 7.98385e-67 2.00642e-66 4.91481e-66 1.17293e-65 2.72599e-65 6.16679e-65 1.35731e-64 2.90523e-64 6.04458e-64 1.22191e-63 2.39883e-63 4.57151e-63 8.45347e-63 1.51617e-62 2.63655e-62 4.44365e-62 7.25649e-62 1.14783e-61 1.75831e-61 2.60804e-61 3.7454e-61 5.20775e-61 7.0116e-61 9.1432e-61 1.15519e-60 1.41487e-60 1.68112e-60 1.93964e-60 2.17581e-60 2.37676e-60 2.53329e-60 2.64126e-60 2.70225e-60 2.72331e-60 2.71588e-60 2.69415e-60 2.67306e-60 2.6663e-60 2.68453e-60 2.73411e-60 2.81635e-60 2.92763e-60 3.06011e-60 3.20308e-60 3.3448e-60 3.47436e-60 3.58329e-60 3.66681e-60 3.72421e-60 3.75858e-60 3.77594e-60 3.7839e-60 3.79027e-60 3.80178e-60 3.82323e-60 3.85701e-60 3.90314e-60 3.95962e-60 4.02297e-60 4.08879e-60 4.15221e-60 4.20824e-60 4.25195e-60 4.27868e-60 4.28427e-60 4.2654e-60 4.21999e-60 4.14754e-60 4.04935e-60 3.92848e-60 3.78943e-60 3.63763e-60 3.47891e-60 3.31898e-60 3.16322e-60 3.01656e-60 2.88358e-60 2.76853e-60 2.67529e-60 2.60703e-60 2.56576e-60 2.55177e-60 2.56325e-60 2.59626e-60 2.64501e-60 2.7027e-60 2.76245e-60 2.81836e-60 2.86633e-60 2.90453e-60 2.93342e-60 2.9554e-60 2.97414e-60 2.99369e-60 3.0176e-60 3.0481e-60 3.08554e-60 3.1282e-60 3.1725e-60 3.21374e-60 3.24703e-60 3.26856e-60 3.27661e-60 3.27235e-60 3.26004e-60 3.2466e-60 3.24065e-60 3.251e-60 3.28518e-60 3.34788e-60 3.43993e-60 3.55782e-60 3.69386e-60 3.83704e-60 3.97429e-60 4.09206e-60 4.17778e-60 4.22112e-60 4.21478e-60 4.15473e-60 4.04016e-60 3.87304e-60 3.65769e-60 3.40032e-60 3.10876e-60 2.79215e-60 2.46068e-60 2.12511e-60 1.79623e-60 1.48405e-60 1.1971e-60 9.41782e-61 7.21928e-61 5.38779e-61 3.91207e-61 2.76212e-61 1.89552e-61 1.26394e-61 8.18712e-62 5.15093e-62 3.14745e-62 1.86791e-62 1.07672e-62 6.02912e-63 3.28005e-63 1.7341e-63 8.91127e-64 4.45242e-64 2.16359e-64 1.02286e-64 4.70613e-65 2.10802e-65 9.19616e-66 3.90859e-66 1.61913e-66 6.53965e-67 2.57637e-67 9.90398e-68 3.71642e-68 1.36182e-68 4.8748e-69 1.7053e-69 5.83192e-70 1.95051e-70 6.38208e-71 2.04367e-71 6.4068e-72 1.96699e-72 5.9161e-73 1.74375e-73 5.0383e-74 1.42749e-74 3.96716e-75 1.08177e-75 2.89509e-76 7.60654e-77 1.96258e-77 4.97396e-78 1.23858e-78 3.0311e-79 7.29107e-80 1.72035e-80 3.80619e-81 0 
0 2.27396e-114 1.75938e-113 1.32583e-112 9.88796e-112 7.2995e-111 5.33345e-110 3.85664e-109 2.75965e-108 1.95389e-107 1.36868e-106 9.48451e-106 6.50118e-105 4.40746e-104 2.95498e-103 1.95903e-102 1.28411e-101 8.3211e-101 5.33003e-100 3.37439e-99 2.11117e-98 1.30514e-97 7.97155e-97 4.80974e-96 2.86639e-95 1.68703e-94 9.80446e-94 5.62569e-93 3.1865e-92 1.78145e-91 9.82849e-91 5.35039e-90 2.87343e-89 1.52215e-88 7.95219e-88 4.09648e-87 2.08043e-86 1.04144e-85 5.13777e-85 2.49742e-84 1.19591e-83 5.64043e-83 2.61963e-82 1.19783e-81 5.39111e-81 2.3878e-80 1.04053e-79 4.46013e-79 1.88007e-78 7.79157e-78 3.17391e-77 1.27049e-76 4.99617e-76 1.92964e-75 7.31761e-75 2.72389e-74 9.94973e-74 3.56535e-73 1.25294e-72 4.31673e-72 1.4576e-71 4.82203e-71 1.56238e-70 4.95623e-70 1.53876e-69 4.67392e-69 1.38842e-68 4.03201e-68 1.14422e-67 3.17182e-67 8.58499e-67 2.26788e-66 5.84469e-66 1.46884e-65 3.59804e-65 8.587e-65 1.99573e-64 4.51489e-64 9.9375e-64 2.12712e-63 4.4258e-63 8.947e-63 1.75652e-62 3.34757e-62 6.19043e-62 1.11033e-61 1.93087e-61 3.25442e-61 5.31466e-61 8.40699e-61 1.28787e-60 1.91032e-60 2.7435e-60 3.8148e-60 5.13633e-60 6.69805e-60 8.4629e-60 1.03657e-59 1.23168e-59 1.42115e-59 1.59427e-59 1.74162e-59 1.85645e-59 1.93572e-59 1.9806e-59 1.99621e-59 1.99094e-59 1.97516e-59 1.95979e-59 1.95486e-59 1.96816e-59 2.00434e-59 2.06438e-59 2.14563e-59 2.24237e-59 2.34679e-59 2.45031e-59 2.54495e-59 2.62454e-59 2.68558e-59 2.72754e-59 2.75269e-59 2.76542e-59 2.77127e-59 2.77596e-59 2.78439e-59 2.80006e-59 2.82473e-59 2.8584e-59 2.89962e-59 2.94585e-59 2.99387e-59 3.04016e-59 3.08104e-59 3.11295e-59 3.13246e-59 3.13655e-59 3.12278e-59 3.08964e-59 3.03675e-59 2.96507e-59 2.87681e-59 2.77526e-59 2.66439e-59 2.54844e-59 2.43159e-59 2.31777e-59 2.21058e-59 2.11337e-59 2.02925e-59 1.96107e-59 1.91115e-59 1.88096e-59 1.87072e-59 1.87913e-59 1.90329e-59 1.93897e-59 1.9812e-59 2.02494e-59 2.06587e-59 2.10098e-59 2.12894e-59 2.15008e-59 2.16616e-59 2.17986e-59 2.19414e-59 2.21159e-59 2.23386e-59 2.2612e-59 2.29236e-59 2.32473e-59 2.35486e-59 2.3792e-59 2.39495e-59 2.40086e-59 2.39777e-59 2.3888e-59 2.379e-59 2.37465e-59 2.38221e-59 2.40714e-59 2.4529e-59 2.52008e-59 2.60611e-59 2.7054e-59 2.8099e-59 2.91007e-59 2.99601e-59 3.05856e-59 3.09016e-59 3.08547e-59 3.04156e-59 2.9578e-59 2.83563e-59 2.67818e-59 2.48998e-59 2.27674e-59 2.04512e-59 1.80257e-59 1.55696e-59 1.31618e-59 1.08758e-59 8.77408e-60 6.90359e-60 5.29263e-60 3.95037e-60 2.86867e-60 2.02562e-60 1.39022e-60 9.27071e-61 6.00549e-61 3.77857e-61 2.309e-61 1.37037e-61 7.89948e-62 4.42343e-62 2.40654e-62 1.27231e-62 6.53821e-63 3.26675e-63 1.58743e-63 7.50467e-64 3.45284e-64 1.54662e-64 6.74701e-65 2.86761e-65 1.18789e-65 4.79786e-66 1.89016e-66 7.26603e-67 2.72654e-67 9.99093e-68 3.5764e-68 1.2511e-68 4.27866e-69 1.43103e-69 4.68245e-70 1.49945e-70 4.70082e-71 1.44327e-71 4.34107e-72 1.27957e-72 3.69728e-73 1.04759e-73 2.91154e-74 7.93968e-75 2.125e-75 5.58359e-76 1.44074e-76 3.65168e-77 9.09389e-78 2.22569e-78 5.3542e-79 1.26346e-79 2.79559e-80 0 
0 1.66335e-113 1.28667e-112 9.69379e-112 7.22792e-111 5.3346e-110 3.8969e-109 2.81724e-108 2.01545e-107 1.42667e-106 9.9915e-106 6.9223e-105 4.7439e-104 3.21543e-103 2.15534e-102 1.42861e-101 9.36231e-101 6.06562e-100 3.88452e-99 2.45877e-98 1.53801e-97 9.5063e-97 5.80516e-96 3.50196e-95 2.08663e-94 1.22787e-93 7.13473e-93 4.0931e-92 2.31801e-91 1.29569e-90 7.1473e-90 3.89018e-89 2.08888e-88 1.10638e-87 5.77918e-87 2.97663e-86 1.51148e-85 7.56522e-85 3.73165e-84 1.81367e-83 8.68379e-83 4.09512e-82 1.90169e-81 8.69444e-81 3.91269e-80 1.73279e-79 7.55017e-79 3.23597e-78 1.36391e-77 5.65195e-77 2.30212e-76 9.2144e-76 3.62325e-75 1.39928e-74 5.306e-74 1.97496e-73 7.21362e-73 2.58476e-72 9.08291e-72 3.12918e-71 1.05656e-70 3.49519e-70 1.13244e-69 3.59226e-69 1.11526e-68 3.38751e-68 1.00627e-67 2.92221e-67 8.29275e-67 2.29879e-66 6.22204e-66 1.64368e-65 4.23609e-65 1.0646e-64 2.60789e-64 6.22407e-64 1.4466e-63 3.2727e-63 7.20364e-63 1.542e-62 3.20848e-62 6.48638e-62 1.27349e-61 2.42712e-61 4.4885e-61 8.05099e-61 1.40013e-60 2.35998e-60 3.85415e-60 6.09692e-60 9.3403e-60 1.38551e-59 1.98987e-59 2.76698e-59 3.72566e-59 4.85863e-59 6.13904e-59 7.5196e-59 8.93539e-59 1.03104e-58 1.1567e-58 1.26368e-58 1.34709e-58 1.40472e-58 1.43741e-58 1.44887e-58 1.44517e-58 1.43382e-58 1.42274e-58 1.41917e-58 1.42877e-58 1.45492e-58 1.49831e-58 1.55705e-58 1.627e-58 1.7025e-58 1.77737e-58 1.84582e-58 1.9034e-58 1.94756e-58 1.97794e-58 1.99616e-58 2.00539e-58 2.00966e-58 2.01307e-58 2.01918e-58 2.03052e-58 2.04835e-58 2.07268e-58 2.10247e-58 2.13587e-58 2.17057e-58 2.20401e-58 2.23355e-58 2.25661e-58 2.27071e-58 2.27367e-58 2.26373e-58 2.23978e-58 2.20156e-58 2.14974e-58 2.08594e-58 2.01251e-58 1.93233e-58 1.84847e-58 1.76394e-58 1.68159e-58 1.60402e-58 1.53366e-58 1.47277e-58 1.4234e-58 1.38725e-58 1.36539e-58 1.35798e-58 1.36407e-58 1.38158e-58 1.40744e-58 1.43804e-58 1.46974e-58 1.49941e-58 1.52486e-58 1.54512e-58 1.56044e-58 1.57209e-58 1.582e-58 1.59232e-58 1.60494e-58 1.62103e-58 1.6408e-58 1.66333e-58 1.68675e-58 1.70855e-58 1.72617e-58 1.73758e-58 1.74187e-58 1.73965e-58 1.73318e-58 1.72611e-58 1.72296e-58 1.72841e-58 1.74643e-58 1.77948e-58 1.82802e-58 1.89019e-58 1.96194e-58 2.03745e-58 2.10984e-58 2.17194e-58 2.21712e-58 2.23993e-58 2.23651e-58 2.20471e-58 2.14408e-58 2.05566e-58 1.94168e-58 1.80542e-58 1.65099e-58 1.48322e-58 1.30749e-58 1.12949e-58 9.54949e-59 7.89197e-59 6.36774e-59 5.0109e-59 3.84207e-59 2.86802e-59 2.08291e-59 1.47093e-59 1.00961e-59 6.73313e-60 4.36196e-60 2.74464e-60 1.67726e-60 9.95475e-61 5.73857e-61 3.21346e-61 1.74829e-61 9.243e-62 4.74986e-62 2.37321e-62 1.15321e-62 5.45183e-63 2.50831e-63 1.12352e-63 4.90118e-64 2.08307e-64 8.62885e-65 3.48511e-65 1.37297e-65 5.27782e-66 1.98045e-66 7.25699e-67 2.59773e-67 9.08744e-68 3.10784e-68 1.03945e-68 3.4012e-69 1.08917e-69 3.41466e-70 1.04841e-70 3.15351e-71 9.29555e-72 2.68604e-72 7.61098e-73 2.1154e-73 5.76893e-74 1.5441e-74 4.05749e-75 1.04703e-75 2.65398e-76 6.60979e-77 1.61785e-77 3.89228e-78 9.18563e-79 2.03263e-79 0 
0 1.20413e-112 9.3123e-112 7.01432e-111 5.22886e-110 3.85832e-109 2.81786e-108 2.0367e-107 1.45674e-106 1.03095e-105 7.21858e-105 5.0001e-104 3.42588e-103 2.32159e-102 1.55586e-101 1.03105e-100 6.75559e-100 4.37591e-99 2.80185e-98 1.77313e-97 1.10892e-96 6.85281e-96 4.18398e-95 2.52352e-94 1.50336e-93 8.8449e-93 5.13854e-92 2.94741e-91 1.6689e-90 9.327e-90 5.14413e-89 2.79943e-88 1.50296e-87 7.9592e-87 4.15686e-86 2.14072e-85 1.08687e-84 5.43919e-84 2.68259e-83 1.30363e-82 6.24094e-82 2.94275e-81 1.36639e-80 6.24635e-80 2.81068e-79 1.24462e-78 5.42252e-78 2.32384e-77 9.79373e-77 4.05808e-76 1.65278e-75 6.61482e-75 2.60086e-74 1.00437e-73 3.80826e-73 1.4174e-72 5.17681e-72 1.85485e-71 6.51768e-71 2.24533e-70 7.58105e-70 2.5078e-69 8.12503e-69 2.57733e-68 8.00154e-68 2.43038e-67 7.21948e-67 2.09654e-66 5.94965e-66 1.64929e-65 4.46413e-65 1.17931e-64 3.0394e-64 7.63872e-64 1.87127e-63 4.46618e-63 1.03807e-62 2.34856e-62 5.16971e-62 1.10667e-61 2.30278e-61 4.65561e-61 9.14097e-61 1.74224e-60 3.2221e-60 5.77975e-60 1.0052e-59 1.69438e-59 2.76726e-59 4.37777e-59 6.70689e-59 9.94923e-59 1.42896e-58 1.9871e-58 2.67567e-58 3.48947e-58 4.40923e-58 5.40099e-58 6.41817e-58 7.40616e-58 8.30923e-58 9.07828e-58 9.67814e-58 1.0093e-57 1.03287e-57 1.0412e-57 1.03863e-57 1.03055e-57 1.02263e-57 1.02007e-57 1.02693e-57 1.04563e-57 1.07669e-57 1.11873e-57 1.16879e-57 1.22285e-57 1.27645e-57 1.32547e-57 1.3667e-57 1.39834e-57 1.42011e-57 1.43318e-57 1.43981e-57 1.44289e-57 1.44534e-57 1.44973e-57 1.45785e-57 1.47061e-57 1.48802e-57 1.50933e-57 1.53322e-57 1.55804e-57 1.58196e-57 1.6031e-57 1.61959e-57 1.62969e-57 1.63181e-57 1.6247e-57 1.60757e-57 1.58022e-57 1.54314e-57 1.49747e-57 1.44491e-57 1.3875e-57 1.32745e-57 1.26692e-57 1.20793e-57 1.15235e-57 1.10194e-57 1.0583e-57 1.02291e-57 9.96998e-58 9.81323e-58 9.76012e-58 9.80387e-58 9.92947e-58 1.0115e-57 1.03346e-57 1.05621e-57 1.07749e-57 1.09576e-57 1.11029e-57 1.12128e-57 1.12963e-57 1.13673e-57 1.14412e-57 1.15314e-57 1.16466e-57 1.17881e-57 1.19494e-57 1.21171e-57 1.22733e-57 1.23996e-57 1.24814e-57 1.25122e-57 1.24965e-57 1.24503e-57 1.23997e-57 1.23772e-57 1.24161e-57 1.25449e-57 1.27814e-57 1.31286e-57 1.35734e-57 1.40866e-57 1.46269e-57 1.51447e-57 1.55889e-57 1.59121e-57 1.60752e-57 1.60503e-57 1.58224e-57 1.5388e-57 1.47543e-57 1.39375e-57 1.29608e-57 1.18536e-57 1.06504e-57 9.3898e-58 8.11265e-58 6.85998e-58 5.67008e-58 4.57561e-58 3.60111e-58 2.76147e-58 2.06162e-58 1.49742e-58 1.05756e-58 7.25949e-59 4.84175e-59 3.13686e-59 1.97389e-59 1.2063e-59 7.15979e-60 4.12747e-60 2.31132e-60 1.25749e-60 6.64819e-61 3.4164e-61 1.70694e-61 8.29442e-62 3.92112e-62 1.80401e-62 8.08035e-63 3.52484e-63 1.49807e-63 6.20541e-64 2.50625e-64 9.87323e-65 3.79529e-65 1.42412e-65 5.21834e-66 1.86795e-66 6.53446e-67 2.23473e-67 7.47429e-68 2.44568e-68 7.83193e-69 2.45542e-69 7.53908e-70 2.26772e-70 6.68471e-71 1.93167e-71 5.47366e-72 1.52142e-72 4.14927e-73 1.11064e-73 2.91864e-74 7.53197e-75 1.90931e-75 4.7555e-76 1.16407e-76 2.80079e-77 6.61032e-78 1.46287e-78 0 
0 8.62585e-112 6.66947e-111 5.02252e-110 3.74322e-109 2.76147e-108 2.01634e-107 1.45706e-106 1.04193e-105 7.37227e-105 5.16087e-104 3.57403e-103 2.44828e-102 1.65876e-101 1.11143e-100 7.36382e-100 4.82391e-99 3.12406e-98 1.99991e-97 1.26538e-96 7.91223e-96 4.88862e-95 2.9842e-94 1.79956e-93 1.07187e-92 6.30518e-92 3.66243e-91 2.10037e-90 1.18908e-89 6.64438e-89 3.66399e-88 1.99363e-87 1.07017e-86 5.66645e-86 2.95899e-85 1.52362e-84 7.73449e-84 3.87018e-83 1.90851e-82 9.2734e-82 4.43895e-81 2.09282e-80 9.71636e-80 4.44126e-79 1.99823e-78 8.84758e-78 3.85432e-77 1.65163e-76 6.9601e-76 2.88371e-75 1.17439e-74 4.69983e-74 1.84778e-73 7.13509e-73 2.70525e-72 1.00681e-71 3.67704e-71 1.31742e-70 4.62907e-70 1.59465e-69 5.38398e-69 1.78098e-68 5.77008e-68 1.8303e-67 5.68227e-67 1.72592e-66 5.12691e-66 1.48887e-65 4.22523e-65 1.17129e-64 3.17039e-64 8.37563e-64 2.15868e-63 5.42547e-63 1.32914e-62 3.1724e-62 7.3739e-62 1.66838e-61 3.67266e-61 7.86239e-61 1.63612e-60 3.30798e-60 6.49536e-60 1.23807e-59 2.28981e-59 4.10766e-59 7.1443e-59 1.20432e-58 1.96701e-58 3.11193e-58 4.76782e-58 7.07307e-58 1.01592e-57 1.41278e-57 1.90242e-57 2.48113e-57 3.13523e-57 3.8406e-57 4.56409e-57 5.26692e-57 5.90945e-57 6.45677e-57 6.88387e-57 7.17948e-57 7.34777e-57 7.40766e-57 7.38999e-57 7.33299e-57 7.27697e-57 7.25883e-57 7.30738e-57 7.43979e-57 7.65974e-57 7.9576e-57 8.31237e-57 8.69546e-57 9.07537e-57 9.42282e-57 9.71518e-57 9.93955e-57 1.0094e-56 1.01868e-56 1.02339e-56 1.02559e-56 1.02734e-56 1.03045e-56 1.03621e-56 1.04525e-56 1.05758e-56 1.07267e-56 1.08959e-56 1.10717e-56 1.1241e-56 1.13907e-56 1.15075e-56 1.15791e-56 1.15941e-56 1.15438e-56 1.14225e-56 1.12288e-56 1.09661e-56 1.06425e-56 1.02701e-56 9.86324e-57 9.43756e-57 9.00837e-57 8.59009e-57 8.19597e-57 7.83834e-57 7.52874e-57 7.27765e-57 7.09374e-57 6.9825e-57 6.94481e-57 6.9759e-57 7.06512e-57 7.19691e-57 7.35288e-57 7.51445e-57 7.66566e-57 7.79539e-57 7.89865e-57 7.97667e-57 8.0359e-57 8.08622e-57 8.13856e-57 8.20251e-57 8.2841e-57 8.38435e-57 8.49868e-57 8.61756e-57 8.72832e-57 8.81789e-57 8.87598e-57 8.89795e-57 8.88691e-57 8.85421e-57 8.81837e-57 8.80239e-57 8.82995e-57 8.92113e-57 9.08854e-57 9.33443e-57 9.64939e-57 1.00129e-56 1.03955e-56 1.07622e-56 1.10768e-56 1.13056e-56 1.1421e-56 1.14032e-56 1.12415e-56 1.09333e-56 1.04838e-56 9.90427e-57 9.2112e-57 8.42535e-57 7.57117e-57 6.67596e-57 5.76876e-57 4.87872e-57 4.03306e-57 3.25504e-57 2.56213e-57 1.96499e-57 1.46717e-57 1.06577e-57 7.52778e-58 5.16779e-58 3.44694e-58 2.23333e-58 1.40541e-58 8.58924e-59 5.09814e-59 2.93903e-59 1.64583e-59 8.95422e-60 4.73397e-60 2.43269e-60 1.21543e-60 5.9059e-61 2.7919e-61 1.28445e-61 5.75299e-62 2.50951e-62 1.06652e-62 4.41766e-63 1.78416e-63 7.02838e-64 2.70165e-64 1.01373e-64 3.71447e-65 1.3296e-65 4.65114e-66 1.59063e-66 5.31999e-67 1.74076e-67 5.57454e-68 1.74771e-68 5.36618e-69 1.61415e-69 4.75823e-70 1.37502e-70 3.89642e-71 1.08305e-71 2.95387e-72 7.90705e-73 2.07798e-73 5.36284e-74 1.35953e-74 3.38639e-75 8.28991e-76 1.99473e-76 4.70825e-77 1.04202e-77 0 
0 6.11408e-111 4.72634e-110 3.55843e-109 2.65146e-108 1.95562e-107 1.42762e-106 1.03141e-105 7.37394e-105 5.21639e-104 3.6509e-103 2.52781e-102 1.73124e-101 1.17272e-100 7.85601e-100 5.20399e-99 3.40837e-98 2.2069e-97 1.41251e-96 8.93551e-96 5.58618e-95 3.45082e-94 2.10613e-93 1.26983e-92 7.56216e-92 4.4476e-91 2.58299e-90 1.48108e-89 8.38345e-89 4.68376e-88 2.58242e-87 1.40491e-86 7.5404e-86 3.99198e-85 2.08429e-84 1.07308e-83 5.44662e-83 2.72502e-82 1.34362e-81 6.52782e-81 3.12433e-80 1.47285e-79 6.83727e-79 3.12492e-78 1.40583e-77 6.22402e-77 2.71115e-76 1.16166e-75 4.89494e-75 2.02791e-74 8.25803e-74 3.3046e-73 1.29915e-72 5.0163e-72 1.90181e-71 7.07765e-71 2.58476e-70 9.26042e-70 3.25376e-69 1.12085e-68 3.78421e-68 1.25177e-67 4.05549e-67 1.28642e-66 3.99376e-66 1.21306e-65 3.60349e-65 1.04648e-64 2.96985e-64 8.23301e-64 2.22855e-63 5.88766e-63 1.51751e-62 3.81416e-62 9.34441e-62 2.23045e-61 5.18472e-61 1.17314e-60 2.58262e-60 5.52918e-60 1.15066e-59 2.32661e-59 4.5687e-59 8.70887e-59 1.61082e-58 2.8898e-58 5.02644e-58 8.47364e-58 1.38407e-57 2.18981e-57 3.35521e-57 4.97771e-57 7.14993e-57 9.94347e-57 1.33902e-56 1.74642e-56 2.20692e-56 2.70355e-56 3.21298e-56 3.70792e-56 4.16048e-56 4.54608e-56 4.84711e-56 5.05563e-56 5.17456e-56 5.21718e-56 5.20516e-56 5.16537e-56 5.12612e-56 5.11337e-56 5.14736e-56 5.24015e-56 5.39437e-56 5.60325e-56 5.8521e-56 6.12083e-56 6.38738e-56 6.63118e-56 6.83635e-56 6.99385e-56 7.10229e-56 7.16749e-56 7.20069e-56 7.21617e-56 7.22853e-56 7.25043e-56 7.29083e-56 7.35423e-56 7.44068e-56 7.54644e-56 7.66503e-56 7.78822e-56 7.90695e-56 8.01188e-56 8.09379e-56 8.14395e-56 8.15454e-56 8.11931e-56 8.03427e-56 7.89846e-56 7.71426e-56 7.48733e-56 7.22608e-56 6.94066e-56 6.64198e-56 6.34079e-56 6.0472e-56 5.77052e-56 5.51942e-56 5.302e-56 5.12564e-56 4.99645e-56 4.91831e-56 4.89184e-56 4.91371e-56 4.97644e-56 5.06911e-56 5.17877e-56 5.29238e-56 5.3987e-56 5.48992e-56 5.56251e-56 5.61734e-56 5.65894e-56 5.69425e-56 5.73094e-56 5.77577e-56 5.83298e-56 5.90329e-56 5.9835e-56 6.06692e-56 6.14467e-56 6.20758e-56 6.2484e-56 6.26388e-56 6.2562e-56 6.2333e-56 6.20817e-56 6.19695e-56 6.21624e-56 6.28012e-56 6.39745e-56 6.5698e-56 6.79059e-56 7.04542e-56 7.31363e-56 7.57072e-56 7.79125e-56 7.95162e-56 8.03242e-56 8.01982e-56 7.90618e-56 7.68979e-56 7.37416e-56 6.96718e-56 6.48035e-56 5.92823e-56 5.32794e-56 4.69865e-56 4.06075e-56 3.43474e-56 2.8398e-56 2.29229e-56 1.80458e-56 1.38417e-56 1.03362e-56 7.50916e-57 5.30443e-57 3.64178e-57 2.42926e-57 1.57406e-57 9.90584e-58 6.05423e-58 3.59358e-58 2.0717e-58 1.16014e-58 6.31177e-59 3.33691e-59 1.71473e-59 8.56699e-60 4.16268e-60 1.96776e-60 9.05261e-61 4.05447e-61 1.76853e-61 7.51576e-62 3.11301e-62 1.2572e-62 4.95234e-63 1.90357e-63 7.14243e-64 2.61703e-64 9.36747e-65 3.2768e-65 1.1206e-65 3.74789e-66 1.22634e-66 3.92715e-67 1.23122e-67 3.78037e-68 1.13715e-68 3.35215e-69 9.68711e-70 2.74512e-70 7.63061e-71 2.08121e-71 5.57128e-72 1.46421e-72 3.77899e-73 9.5806e-74 2.38653e-74 5.84263e-75 1.40596e-75 3.31879e-76 7.3456e-77 0 