# vtk DataFile Version 3.0
Gray-Scott Simulation Output
ASCII
DATASET STRUCTURED_POINTS
DIMENSIONS 256 256 1
SPACING 1.0 1.0 1.0
ORIGIN 0 0 0
POINT_DATA 65536
SCALARS u double
LOOKUP_TABLE default
0 0 0 0 0 0 0 0 0 0 0 0 0 0 0 0 0 0 0 0 0 0 0 0 0 0 0 0 0 0 0 0 0 0 0 0 0 0 0 0 0 0 0 0 0 0 0 0 0 0 0 0 0 0 0 0 0 0 0 0 0 0 0 0 0 0 0 0 0 0 0 0 0 0 0 0 0 0 0 0 0 0 0 0 0 0 0 0 0 0 0 0 0 0 0 0 0 0 0 0 0 0 0 0 0 0 0 0 0 0 0 0 0 0 0 0 0 0 0 0 0 0 0 0 0 0 0 0 0 0 0 0 0 0 0 0 0 0 0 0 0 0 0 0 0 0 0 0 0 0 0 0 0 0 0 0 0 0 0 0 0 0 0 0 0 0 0 0 0 0 0 0 0 0 0 0 0 0 0 0 0 0 0 0 0 0 0 0 0 0 0 0 0 0 0 0 0 0 0 0 0 0 0 0 0 0 0 0 0 0 0 0 0 0 0 0 0 0 0 0 0 0 0 0 0 0 0 0 0 0 0 0 0 0 0 0 0 0 0 0 0 0 0 0 0 0 0 0 0 0 0 0 0 0 0 0 
0 4.09796e-178 7.91051e-177 1.50654e-175 2.8378e-174 5.28644e-173 9.73827e-172 1.77374e-170 3.19403e-169 5.68568e-168 1.00039e-166 1.7396e-165 2.9893e-164 5.0755e-163 8.51377e-162 1.41073e-160 2.30881e-159 3.73161e-158 5.95538e-157 9.38353e-156 1.45951e-154 2.24059e-153 3.39449e-152 5.07424e-151 7.48318e-150 1.08855e-148 1.56166e-147 2.20915e-146 3.081e-145 4.2355e-144 5.73833e-143 7.66042e-142 1.00744e-140 1.30498e-139 1.6646e-138 2.09051e-137 2.58424e-136 3.14379e-135 3.76285e-134 4.43014e-133 5.1292e-132 5.83852e-131 6.53228e-130 7.18155e-129 7.75608e-128 8.22643e-127 8.56638e-126 8.7552e-125 8.7797e-124 8.63565e-123 8.32845e-122 7.87286e-121 7.29192e-120 6.61494e-119 5.87507e-118 5.10652e-117 4.34185e-116 3.6097e-115 2.933e-114 2.32802e-113 1.80417e-112 1.36444e-111 1.00643e-110 7.23618e-110 5.06844e-109 3.45624e-108 2.29305e-107 1.47911e-106 9.26935e-106 5.63936e-105 3.32806e-104 1.90356e-103 1.05431e-102 5.64925e-102 2.92548e-101 1.46262e-100 7.05199e-100 3.27511e-99 1.46329e-98 6.28131e-98 2.58686e-97 1.02059e-96 3.85117e-96 1.38761e-95 4.76534e-95 1.55686e-94 4.82904e-94 1.41907e-93 3.94191e-93 1.03266e-92 2.54508e-92 5.88654e-92 1.27452e-91 2.57687e-91 4.85386e-91 8.50029e-91 1.38172e-90 2.08263e-90 2.91059e-90 3.77594e-90 4.55954e-90 5.14805e-90 5.47047e-90 5.5171e-90 5.33275e-90 4.99214e-90 4.57409e-90 4.14746e-90 3.77016e-90 3.49407e-90 3.36729e-90 3.42931e-90 3.70019e-90 4.16851e-90 4.78445e-90 5.46363e-90 6.10387e-90 6.61066e-90 6.9216e-90 7.02036e-90 6.93556e-90 6.72722e-90 6.46726e-90 6.22201e-90 6.04201e-90 5.95945e-90 5.98872e-90 6.12547e-90 6.34528e-90 6.60756e-90 6.86793e-90 7.095e-90 7.28153e-90 7.44221e-90 7.59827e-90 7.75737e-90 7.90027e-90 7.9828e-90 7.95362e-90 7.77908e-90 7.46123e-90 7.03849e-90 6.56934e-90 6.11003e-90 5.69825e-90 5.34783e-90 5.05162e-90 4.78862e-90 4.53427e-90 4.27331e-90 4.01164e-90 3.78049e-90 3.62804e-90 3.5997e-90 3.71525e-90 3.95475e-90 4.26208e-90 4.56569e-90 4.80556e-90 4.95194e-90 5.00738e-90 4.99477e-90 4.94115e-90 4.86703e-90 4.78563e-90 4.71019e-90 4.66205e-90 4.67145e-90 4.76706e-90 4.95932e-90 5.22793e-90 5.52276e-90 5.77826e-90 5.93394e-90 5.9511e-90 5.82159e-90 5.56913e-90 5.24513e-90 4.91964e-90 4.66793e-90 4.55537e-90 4.62545e-90 4.89375e-90 5.34729e-90 5.94647e-90 6.62754e-90 7.30774e-90 7.89654e-90 8.31385e-90 8.51005e-90 8.4786e-90 8.25351e-90 7.89091e-90 7.44284e-90 6.93658e-90 6.37082e-90 5.73001e-90 5.00658e-90 4.21672e-90 3.40141e-90 2.61477e-90 1.90812e-90 1.31757e-90 8.58515e-91 5.26672e-91 3.03684e-91 1.64419e-91 8.35583e-92 3.98714e-92 1.78781e-92 7.54222e-93 2.99809e-93 1.12485e-93 3.9905e-94 1.34105e-94 4.27708e-95 1.29696e-95 3.74587e-96 1.0322e-96 2.71813e-97 6.85098e-98 1.65522e-98 3.83875e-99 8.55736e-100 1.83593e-100 3.7954e-101 7.56904e-102 1.45772e-102 2.71394e-103 4.88925e-104 8.53095e-105 1.44293e-105 2.36782e-106 3.77265e-107 5.84073e-108 8.79267e-109 1.28796e-109 1.83695e-110 2.55255e-111 3.45771e-112 4.56866e-113 5.8913e-114 7.41789e-115 9.12461e-116 1.09703e-116 1.28972e-117 1.48333e-118 1.66964e-119 1.84007e-120 1.98628e-121 2.1009e-122 2.17816e-123 2.21432e-124 2.20788e-125 2.14087e-126 0 
0 7.91136e-177 1.52596e-175 2.90385e-174 5.46548e-173 1.01734e-171 1.87257e-170 3.40803e-169 6.13209e-168 1.09071e-166 1.91758e-165 3.33189e-164 5.72097e-163 9.70594e-162 1.62682e-160 2.69353e-159 4.4048e-158 7.1137e-157 1.13441e-155 1.78603e-154 2.77582e-153 4.25806e-152 6.44594e-151 9.62825e-150 1.41882e-148 2.06231e-147 2.95637e-146 4.17892e-145 5.82367e-144 7.99978e-143 1.083e-141 1.44465e-140 1.89846e-139 2.45727e-138 3.13207e-137 3.93047e-136 4.85509e-135 5.90189e-134 7.05875e-133 8.3043e-132 9.60749e-131 1.0928e-129 1.22174e-128 1.34217e-127 1.44847e-126 1.53518e-125 1.59744e-124 1.63145e-123 1.63482e-122 1.60682e-121 1.54853e-120 1.46276e-119 1.35384e-118 1.22726e-117 1.08921e-116 9.46044e-116 8.03806e-115 6.67787e-114 5.42214e-113 4.30069e-112 3.33061e-111 2.51708e-110 1.85533e-109 1.33305e-108 9.33062e-108 6.35831e-107 4.21555e-106 2.71735e-105 1.70177e-104 1.03464e-103 6.10186e-103 3.48779e-102 1.93049e-101 1.03372e-100 5.3497e-100 2.67292e-99 1.28793e-98 5.97768e-98 2.66912e-97 1.14504e-96 4.71284e-96 1.85824e-95 7.00794e-95 2.52357e-94 8.66161e-94 2.82824e-93 8.76791e-93 2.57522e-92 7.14993e-92 1.87217e-91 4.61202e-91 1.06626e-90 2.30768e-90 4.66404e-90 8.78241e-90 1.53757e-89 2.49869e-89 3.76547e-89 5.26168e-89 6.8254e-89 8.2415e-89 9.30532e-89 9.88861e-89 9.97377e-89 9.64159e-89 9.02691e-89 8.27214e-89 7.50173e-89 6.82035e-89 6.32179e-89 6.09294e-89 6.20509e-89 6.69443e-89 7.54029e-89 8.65268e-89 9.87924e-89 1.10355e-88 1.19509e-88 1.25127e-88 1.26915e-88 1.25388e-88 1.2163e-88 1.16941e-88 1.12516e-88 1.09269e-88 1.07781e-88 1.08311e-88 1.1078e-88 1.14748e-88 1.1948e-88 1.24179e-88 1.28277e-88 1.31645e-88 1.34545e-88 1.37362e-88 1.40233e-88 1.42811e-88 1.44299e-88 1.43772e-88 1.40623e-88 1.34886e-88 1.27255e-88 1.18784e-88 1.10486e-88 1.03044e-88 9.67079e-89 9.13496e-89 8.65913e-89 8.19898e-89 7.72698e-89 7.25376e-89 6.83574e-89 6.55997e-89 6.50849e-89 6.7171e-89 7.14983e-89 7.70534e-89 8.25434e-89 8.68837e-89 8.95352e-89 9.0543e-89 9.03198e-89 8.93541e-89 8.80164e-89 8.65464e-89 8.51834e-89 8.43137e-89 8.44833e-89 8.62103e-89 8.96826e-89 9.45344e-89 9.98601e-89 1.04477e-88 1.07291e-88 1.07604e-88 1.05268e-88 1.00711e-88 9.4861e-89 8.8984e-89 8.44384e-89 8.24052e-89 8.36699e-89 8.85137e-89 9.67026e-89 1.07521e-88 1.19817e-88 1.32096e-88 1.42725e-88 1.5026e-88 1.53804e-88 1.53239e-88 1.49179e-88 1.42635e-88 1.34545e-88 1.25399e-88 1.15174e-88 1.03591e-88 9.05138e-89 7.62359e-89 6.14982e-89 4.72784e-89 3.4504e-89 2.38278e-89 1.55279e-89 9.52748e-90 5.49473e-90 2.97565e-90 1.51265e-90 7.2202e-91 3.23864e-91 1.3668e-91 5.4354e-92 2.0402e-92 7.24112e-93 2.43463e-93 7.76885e-94 2.35702e-94 6.81118e-95 1.8779e-95 4.94796e-96 1.24784e-96 3.01659e-97 7.00022e-98 1.56144e-98 3.35203e-99 6.93394e-100 1.38369e-100 2.66654e-101 4.96769e-102 8.95525e-103 1.56357e-103 2.64639e-104 4.34555e-105 6.92843e-106 1.07337e-106 1.61695e-107 2.37016e-108 3.38275e-109 4.70378e-110 6.37622e-111 8.43077e-112 1.08791e-112 1.37079e-113 1.68737e-114 2.03014e-115 2.38843e-116 2.74893e-117 3.09645e-118 3.41498e-119 3.68901e-120 3.90473e-121 4.05126e-122 4.12155e-123 4.11257e-124 3.99063e-125 0 
0 1.50687e-175 2.90417e-174 5.52211e-173 1.03852e-171 1.93154e-170 3.55248e-169 6.46025e-168 1.16148e-166 2.06427e-165 3.62632e-164 6.29593e-163 1.08018e-161 1.83114e-160 3.06678e-159 5.07368e-158 8.29061e-157 1.33787e-155 2.13182e-154 3.35374e-153 5.20826e-152 7.98317e-151 1.20757e-149 1.80234e-148 2.65387e-147 3.85452e-146 5.52127e-145 7.79849e-144 1.08595e-142 1.49058e-141 2.01638e-140 2.68767e-139 3.52924e-138 4.56461e-137 5.81369e-136 7.29012e-135 8.99825e-134 1.09301e-132 1.30627e-131 1.53561e-130 1.77526e-129 2.01775e-128 2.25414e-127 2.4745e-126 2.66849e-125 2.82613e-124 2.93857e-123 2.99892e-122 3.0029e-121 2.94931e-120 2.84024e-119 2.68096e-118 2.47953e-117 2.24608e-116 1.99198e-115 1.72891e-114 1.46792e-113 1.21865e-112 9.88784e-112 7.83721e-111 6.06513e-110 4.58045e-109 3.37387e-108 2.42243e-107 1.69439e-106 1.15384e-105 7.6447e-105 4.92443e-104 3.08189e-103 1.87246e-102 1.10356e-101 6.3037e-101 3.48679e-100 1.86586e-99 9.6499e-99 4.81838e-98 2.32022e-97 1.07621e-96 4.80247e-96 2.05898e-95 8.46936e-95 3.33742e-94 1.2579e-93 4.52711e-93 1.55296e-92 5.06805e-92 1.57032e-91 4.60981e-91 1.27925e-90 3.34803e-90 8.24401e-90 1.90513e-89 4.12158e-89 8.32704e-89 1.56747e-88 2.74342e-88 4.45723e-88 6.71563e-88 9.38271e-88 1.217e-87 1.46944e-87 1.65914e-87 1.76324e-87 1.77858e-87 1.71954e-87 1.61013e-87 1.47571e-87 1.33848e-87 1.2171e-87 1.1283e-87 1.08755e-87 1.10755e-87 1.19474e-87 1.34544e-87 1.54361e-87 1.76211e-87 1.96809e-87 2.13118e-87 2.23131e-87 2.26323e-87 2.23612e-87 2.16927e-87 2.08581e-87 2.00707e-87 1.9493e-87 1.92285e-87 1.93232e-87 1.9763e-87 2.04692e-87 2.13117e-87 2.21481e-87 2.28777e-87 2.34773e-87 2.39938e-87 2.44953e-87 2.50063e-87 2.54649e-87 2.57296e-87 2.56358e-87 2.50752e-87 2.40541e-87 2.26953e-87 2.11865e-87 1.97079e-87 1.83812e-87 1.7251e-87 1.62949e-87 1.54457e-87 1.46245e-87 1.37824e-87 1.29382e-87 1.21925e-87 1.17004e-87 1.16081e-87 1.19796e-87 1.27509e-87 1.37413e-87 1.47206e-87 1.54953e-87 1.59691e-87 1.61498e-87 1.61109e-87 1.59393e-87 1.57012e-87 1.54393e-87 1.51964e-87 1.50414e-87 1.50716e-87 1.53793e-87 1.59979e-87 1.68623e-87 1.78113e-87 1.86341e-87 1.91359e-87 1.91922e-87 1.87765e-87 1.79652e-87 1.69234e-87 1.58767e-87 1.5067e-87 1.47048e-87 1.49299e-87 1.57925e-87 1.72509e-87 1.91775e-87 2.13671e-87 2.35538e-87 2.54465e-87 2.67882e-87 2.74196e-87 2.73197e-87 2.65974e-87 2.54325e-87 2.39914e-87 2.23616e-87 2.05389e-87 1.84737e-87 1.61419e-87 1.3596e-87 1.09681e-87 8.43256e-88 6.15462e-88 4.25071e-88 2.77044e-88 1.70014e-88 9.8071e-89 5.31227e-89 2.70122e-89 1.28975e-89 5.78723e-90 2.44332e-90 9.72044e-91 3.6502e-91 1.29614e-91 4.36004e-92 1.39198e-92 4.22539e-93 1.22168e-93 3.37015e-94 8.8848e-95 2.24198e-95 5.42306e-96 1.25921e-96 2.81046e-97 6.03708e-98 1.2496e-98 2.49518e-99 4.8116e-100 8.96966e-101 1.61802e-101 2.82688e-102 4.78775e-103 7.86706e-104 1.25514e-104 1.94582e-105 2.93323e-106 4.30253e-107 6.14493e-108 8.55055e-109 1.15988e-109 1.53469e-110 1.98177e-111 2.49883e-112 3.07813e-113 3.70605e-114 4.36324e-115 5.02542e-116 5.66481e-117 6.25209e-118 6.75868e-119 7.15912e-120 7.43322e-121 7.56773e-122 7.55681e-123 7.33807e-124 0 
0 2.83873e-174 5.4667e-173 1.03863e-171 1.95175e-170 3.62717e-169 6.66577e-168 1.21122e-166 2.17591e-165 3.86413e-164 6.78279e-163 1.17668e-161 2.01722e-160 3.41693e-159 5.71815e-158 9.45268e-157 1.5434e-155 2.48867e-154 3.96244e-153 6.22879e-152 9.66559e-151 1.48038e-149 2.23755e-148 3.33703e-147 4.90983e-146 7.12563e-145 1.0199e-143 1.43944e-142 2.0029e-141 2.74709e-140 3.71327e-139 4.9457e-138 6.48938e-137 8.38676e-136 1.06736e-134 1.33742e-133 1.64953e-132 2.00216e-131 2.39101e-130 2.80869e-129 3.24458e-128 3.68501e-127 4.11366e-126 4.51245e-125 4.8626e-124 5.14604e-123 5.34684e-122 5.45263e-121 5.45586e-120 5.35457e-119 5.15278e-118 4.86029e-117 4.49185e-116 4.066e-115 3.60342e-114 3.12529e-113 2.6516e-112 2.19976e-111 1.78357e-110 1.41268e-109 1.09249e-108 8.2448e-108 6.06872e-107 4.35429e-106 3.04356e-105 2.07117e-104 1.3713e-103 8.82739e-103 5.52078e-102 3.35201e-101 1.97423e-100 1.12697e-99 6.22955e-99 3.3314e-98 1.72183e-97 8.59193e-97 4.13471e-96 1.91665e-95 8.5475e-95 3.66237e-94 1.50556e-93 5.9293e-93 2.23349e-92 8.03365e-92 2.75429e-91 8.98367e-91 2.78209e-90 8.16286e-90 2.26411e-89 5.92281e-89 1.45774e-88 3.3673e-88 7.28198e-88 1.47068e-87 2.76747e-87 4.84231e-87 7.86538e-87 1.18483e-86 1.65515e-86 2.14665e-86 2.59183e-86 2.92645e-86 3.11023e-86 3.13758e-86 3.03379e-86 2.84113e-86 2.60433e-86 2.36252e-86 2.14863e-86 1.99215e-86 1.92037e-86 1.95566e-86 2.10936e-86 2.37495e-86 2.72416e-86 3.1092e-86 3.47221e-86 3.75965e-86 3.9362e-86 3.99256e-86 3.94493e-86 3.8273e-86 3.68039e-86 3.54177e-86 3.4401e-86 3.39358e-86 3.41032e-86 3.4878e-86 3.61218e-86 3.76052e-86 3.90779e-86 4.03628e-86 4.14189e-86 4.23288e-86 4.3212e-86 4.41116e-86 4.49189e-86 4.53847e-86 4.52193e-86 4.42322e-86 4.24341e-86 4.0041e-86 3.73824e-86 3.47762e-86 3.24363e-86 3.04422e-86 2.87546e-86 2.72553e-86 2.58057e-86 2.43193e-86 2.28295e-86 2.15135e-86 2.06447e-86 2.04811e-86 2.11356e-86 2.24954e-86 2.42424e-86 2.59705e-86 2.73383e-86 2.81759e-86 2.84965e-86 2.84294e-86 2.81279e-86 2.77085e-86 2.7247e-86 2.68188e-86 2.65455e-86 2.65987e-86 2.71409e-86 2.82311e-86 2.97546e-86 3.14273e-86 3.2878e-86 3.37632e-86 3.38634e-86 3.31319e-86 3.17028e-86 2.98676e-86 2.80234e-86 2.65967e-86 2.59582e-86 2.63546e-86 2.78742e-86 3.04435e-86 3.38376e-86 3.7695e-86 4.15468e-86 4.48807e-86 4.72443e-86 4.83572e-86 4.81824e-86 4.69111e-86 4.48596e-86 4.23206e-86 3.94476e-86 3.62333e-86 3.25906e-86 2.84775e-86 2.39868e-86 1.93514e-86 1.48788e-86 1.08604e-86 7.50153e-87 4.88985e-87 3.00125e-87 1.73159e-87 9.38185e-88 4.77186e-88 2.27913e-88 1.02302e-88 4.32077e-89 1.71967e-89 6.46047e-90 2.29509e-90 7.72409e-91 2.46721e-91 7.49317e-92 2.16765e-92 5.983e-93 1.5782e-93 3.98469e-94 9.64409e-95 2.24065e-95 5.00397e-96 1.07555e-96 2.22764e-97 4.45091e-98 8.5884e-99 1.60206e-99 2.89178e-100 5.05562e-101 8.5681e-102 1.40882e-102 2.24919e-103 3.48921e-104 5.26341e-105 7.72576e-106 1.10416e-106 1.53748e-107 2.08704e-108 2.76339e-109 3.57091e-110 4.50576e-111 5.55425e-112 6.69204e-113 7.88437e-114 9.08744e-115 1.0251e-115 1.13219e-116 1.22482e-117 1.29833e-118 1.34903e-119 1.37444e-120 1.37347e-121 1.33468e-122 0 
0 5.28879e-173 1.01768e-171 1.93198e-170 3.62759e-169 6.73623e-168 1.23696e-166 2.24586e-165 4.0314e-164 7.15358e-163 1.25469e-161 2.17493e-160 3.72561e-159 6.30579e-158 1.05443e-156 1.74171e-155 2.84158e-154 4.57835e-153 7.28393e-152 1.14411e-150 1.77401e-149 2.71496e-148 4.1004e-147 6.11051e-146 8.98357e-145 1.30278e-143 1.86324e-142 2.62768e-141 3.65346e-140 5.0071e-139 6.76298e-138 9.00075e-137 1.18011e-135 1.524e-134 1.93809e-133 2.4266e-132 2.99065e-131 3.62725e-130 4.32845e-129 5.08076e-128 5.86489e-127 6.65603e-126 7.42475e-125 8.13848e-124 8.76351e-123 9.26748e-122 9.622e-121 9.80518e-120 9.8038e-119 9.61476e-118 9.24569e-117 8.71454e-116 8.04811e-115 7.27985e-114 6.447e-113 5.58757e-112 4.7373e-111 3.92725e-110 3.18197e-109 2.51851e-108 1.9463e-107 1.46782e-106 1.07966e-105 7.74117e-105 5.40718e-104 3.67711e-103 2.43292e-102 1.56507e-101 9.78162e-101 5.93506e-100 3.49325e-99 1.99276e-98 1.10082e-97 5.88311e-97 3.03873e-96 1.51536e-95 7.2878e-95 3.37616e-94 1.50471e-93 6.44335e-93 2.64722e-92 1.04193e-91 3.92255e-91 1.4101e-90 4.83177e-90 1.57512e-89 4.87532e-89 1.42973e-88 3.96365e-88 1.03638e-87 2.54964e-87 5.88704e-87 1.2726e-86 2.56924e-86 4.83314e-86 8.45425e-86 1.3729e-85 2.06772e-85 2.88808e-85 3.74538e-85 4.52195e-85 5.10583e-85 5.4268e-85 5.47504e-85 5.29455e-85 4.95901e-85 4.54638e-85 4.12492e-85 3.75209e-85 3.47935e-85 3.35428e-85 3.41587e-85 3.68385e-85 4.14683e-85 4.75555e-85 5.42671e-85 6.05948e-85 6.5606e-85 6.86848e-85 6.96695e-85 6.88421e-85 6.67944e-85 6.42364e-85 6.18229e-85 6.00528e-85 5.92436e-85 5.95362e-85 6.08864e-85 6.30531e-85 6.56368e-85 6.82019e-85 7.04401e-85 7.228e-85 7.38654e-85 7.54039e-85 7.69703e-85 7.83758e-85 7.91866e-85 7.88983e-85 7.71791e-85 7.40474e-85 6.98781e-85 6.52448e-85 6.07007e-85 5.6619e-85 5.31387e-85 5.0192e-85 4.75738e-85 4.50424e-85 4.24473e-85 3.98466e-85 3.75492e-85 3.60321e-85 3.57452e-85 3.68856e-85 3.92571e-85 4.23053e-85 4.53217e-85 4.77108e-85 4.91754e-85 4.97381e-85 4.96237e-85 4.90995e-85 4.8369e-85 4.75644e-85 4.68178e-85 4.63412e-85 4.64337e-85 4.73788e-85 4.92793e-85 5.19353e-85 5.48519e-85 5.73817e-85 5.89263e-85 5.91026e-85 5.78292e-85 5.53396e-85 5.21418e-85 4.89279e-85 4.64412e-85 4.5328e-85 4.60183e-85 4.86663e-85 5.31436e-85 5.90581e-85 6.57795e-85 7.24907e-85 7.82995e-85 8.2418e-85 8.43582e-85 8.40554e-85 8.18424e-85 7.82689e-85 7.3844e-85 6.88345e-85 6.32277e-85 5.68722e-85 4.96957e-85 4.18604e-85 3.37726e-85 2.59685e-85 1.89566e-85 1.30952e-85 8.53718e-86 5.24074e-86 3.02428e-86 1.63896e-86 8.33847e-87 3.98385e-87 1.78883e-87 7.55802e-88 3.00931e-88 1.13103e-88 4.01984e-89 1.35352e-89 4.32553e-90 1.31438e-90 3.80432e-91 1.05061e-91 2.77286e-92 7.005e-93 1.6964e-93 3.94365e-94 8.81249e-95 1.89531e-95 3.92791e-96 7.85304e-97 1.51627e-97 2.83021e-98 5.11195e-99 8.94291e-100 1.51661e-100 2.49535e-101 3.98651e-102 6.1885e-103 9.34154e-104 1.37211e-104 1.96235e-105 2.73434e-106 3.71428e-107 4.92139e-108 6.36398e-109 8.03569e-110 9.91259e-111 1.19517e-111 1.40911e-112 1.62529e-113 1.83471e-114 2.02784e-115 2.19533e-116 2.32878e-117 2.42147e-118 2.4689e-119 2.46896e-120 2.40096e-121 0 
0 9.74373e-172 1.87342e-170 3.5537e-169 6.66731e-168 1.2371e-166 2.26985e-165 4.11796e-164 7.38604e-163 1.30959e-161 2.29513e-160 3.97534e-159 6.80431e-158 1.15076e-156 1.92275e-155 3.17353e-154 5.17352e-153 8.32907e-152 1.32408e-150 2.07816e-149 3.2198e-148 4.9238e-147 7.43065e-146 1.10648e-144 1.62547e-143 2.35541e-142 3.36614e-141 4.74354e-140 6.59024e-139 9.02508e-138 1.21807e-136 1.61988e-135 2.12225e-134 2.7386e-133 3.48008e-132 4.35398e-131 5.36199e-130 6.49847e-129 7.74891e-128 9.08892e-127 1.04838e-125 1.18891e-124 1.32524e-123 1.45156e-122 1.56188e-121 1.65049e-120 1.71237e-119 1.74369e-118 1.74217e-117 1.70733e-116 1.6406e-115 1.54523e-114 1.42603e-113 1.28898e-112 1.1407e-111 9.87925e-111 8.36995e-110 6.93384e-109 5.61403e-108 4.44034e-107 3.4291e-106 2.58427e-105 1.89955e-104 1.36104e-103 9.50033e-103 6.45622e-102 4.26879e-101 2.74422e-100 1.71397e-99 1.03927e-98 6.11287e-98 3.48487e-97 1.92383e-96 1.02748e-95 5.30373e-95 2.6432e-94 1.2704e-93 5.88161e-93 2.61976e-92 1.12113e-91 4.60338e-91 1.8108e-90 6.8132e-90 2.44787e-89 8.3831e-89 2.73136e-88 8.4497e-88 2.47668e-87 6.8628e-87 1.79359e-86 4.41051e-86 1.01795e-85 2.19964e-85 4.43923e-85 8.34819e-85 1.45988e-84 2.37015e-84 3.569e-84 4.98431e-84 6.46329e-84 7.80313e-84 8.81083e-84 9.36527e-84 9.44942e-84 9.13903e-84 8.56105e-84 7.84991e-84 7.12338e-84 6.48064e-84 6.01046e-84 5.79493e-84 5.90123e-84 6.36333e-84 7.16157e-84 8.21102e-84 9.36808e-84 1.0459e-83 1.13231e-83 1.18541e-83 1.20243e-83 1.18821e-83 1.15296e-83 1.10891e-83 1.06734e-83 1.03687e-83 1.02295e-83 1.028e-83 1.05128e-83 1.08861e-83 1.13311e-83 1.1773e-83 1.21586e-83 1.24756e-83 1.27488e-83 1.30139e-83 1.32837e-83 1.35257e-83 1.36652e-83 1.36155e-83 1.33194e-83 1.27799e-83 1.20615e-83 1.12629e-83 1.04793e-83 9.77506e-84 9.17431e-84 8.66547e-84 8.21324e-84 7.77603e-84 7.32789e-84 6.87886e-84 6.48219e-84 6.22013e-84 6.17036e-84 6.36689e-84 6.77598e-84 7.302e-84 7.82277e-84 8.2355e-84 8.48882e-84 8.58649e-84 8.56722e-84 8.4771e-84 8.35125e-84 8.21252e-84 8.08375e-84 8.00154e-84 8.01746e-84 8.18038e-84 8.50805e-84 8.96601e-84 9.46896e-84 9.90532e-84 1.01719e-83 1.02026e-83 9.98335e-84 9.55439e-84 9.00327e-84 8.44931e-84 8.02065e-84 7.8287e-84 7.94762e-84 8.40397e-84 9.17565e-84 1.0195e-83 1.13533e-83 1.25098e-83 1.35108e-83 1.42206e-83 1.45551e-83 1.45033e-83 1.41222e-83 1.35066e-83 1.27439e-83 1.188e-83 1.09127e-83 9.81599e-84 8.57755e-84 7.2254e-84 5.82968e-84 4.48285e-84 3.27269e-84 2.26101e-84 1.47422e-84 9.05133e-85 5.2243e-85 2.83188e-85 1.44116e-85 6.88752e-86 3.09369e-86 1.30761e-86 5.20849e-87 1.95842e-87 6.96364e-88 2.34583e-88 7.50045e-89 2.2803e-89 6.60352e-90 1.82464e-90 4.81839e-91 1.21795e-91 2.95121e-92 6.86476e-93 1.53492e-93 3.30316e-94 6.8498e-95 1.37033e-95 2.6475e-96 4.94487e-97 8.9372e-98 1.5645e-98 2.65493e-99 4.37117e-100 6.98792e-101 1.0855e-101 1.63967e-102 2.41002e-103 3.44909e-104 4.80927e-105 6.53733e-106 8.66792e-107 1.12165e-107 1.41728e-108 1.74955e-109 2.11093e-110 2.49058e-111 2.87472e-112 3.24746e-113 3.59188e-114 3.89135e-115 4.13089e-116 4.29842e-117 4.38581e-118 4.38912e-119 4.27131e-120 0 
0 1.77494e-170 3.40997e-169 6.46324e-168 1.21165e-166 2.24639e-165 4.11845e-164 7.46578e-163 1.33802e-161 2.37052e-160 4.15119e-159 7.18452e-158 1.22876e-156 2.07648e-155 3.46677e-154 5.71749e-153 9.31344e-152 1.49824e-150 2.37992e-149 3.73242e-148 5.77834e-147 8.82954e-146 1.33146e-144 1.98112e-143 2.90812e-142 4.21081e-141 6.01309e-140 8.46712e-139 1.17545e-137 1.6085e-136 2.16926e-135 2.88265e-134 3.77378e-133 4.86609e-132 6.17892e-131 7.72472e-130 9.50596e-129 1.15121e-127 1.3717e-126 1.60771e-125 1.85306e-124 2.0999e-123 2.33895e-122 2.56e-121 2.75254e-120 2.90655e-119 3.01331e-118 3.06618e-117 3.06127e-116 2.99788e-115 2.87863e-114 2.70933e-113 2.49853e-112 2.25678e-111 1.99574e-110 1.72723e-109 1.46231e-108 1.21055e-107 9.79442e-107 7.74133e-106 5.97416e-105 4.49918e-104 3.30481e-103 2.36629e-102 1.65059e-101 1.12094e-100 7.40654e-100 4.75813e-99 2.96983e-98 1.79957e-97 1.05779e-96 6.02639e-96 3.32472e-95 1.77454e-94 9.15409e-94 4.55922e-93 2.18992e-92 1.01325e-91 4.51043e-91 1.92909e-90 7.91618e-90 3.11212e-89 1.17028e-88 4.20225e-88 1.43834e-87 4.68386e-87 1.44824e-86 4.24278e-86 1.17509e-85 3.06967e-85 7.5451e-85 1.74069e-84 3.75992e-84 7.58546e-84 1.42603e-83 2.49305e-83 4.04658e-83 6.09226e-83 8.50701e-83 1.10304e-82 1.33165e-82 1.50365e-82 1.59837e-82 1.61289e-82 1.56011e-82 1.46165e-82 1.34045e-82 1.21659e-82 1.10701e-82 1.02685e-82 9.9012e-83 1.00826e-82 1.08706e-82 1.22317e-82 1.40209e-82 1.59936e-82 1.78536e-82 1.9327e-82 2.02329e-82 2.05237e-82 2.02821e-82 1.9682e-82 1.89318e-82 1.82239e-82 1.7705e-82 1.74681e-82 1.75546e-82 1.79513e-82 1.85873e-82 1.93455e-82 2.00982e-82 2.07552e-82 2.12954e-82 2.17609e-82 2.22125e-82 2.2672e-82 2.30841e-82 2.33217e-82 2.3237e-82 2.27326e-82 2.18136e-82 2.05894e-82 1.9228e-82 1.78917e-82 1.66902e-82 1.56646e-82 1.47956e-82 1.40232e-82 1.32764e-82 1.25111e-82 1.17443e-82 1.10669e-82 1.06193e-82 1.05338e-82 1.08688e-82 1.15667e-82 1.24644e-82 1.33536e-82 1.40588e-82 1.44921e-82 1.46598e-82 1.46277e-82 1.44745e-82 1.426e-82 1.40235e-82 1.38038e-82 1.36636e-82 1.36907e-82 1.39684e-82 1.45271e-82 1.5308e-82 1.61658e-82 1.69101e-82 1.73651e-82 1.7418e-82 1.70447e-82 1.63137e-82 1.53744e-82 1.44302e-82 1.36994e-82 1.33721e-82 1.35747e-82 1.43525e-82 1.56678e-82 1.74051e-82 1.93792e-82 2.13501e-82 2.3056e-82 2.42656e-82 2.4836e-82 2.47482e-82 2.40994e-82 2.30506e-82 2.17504e-82 2.02771e-82 1.86267e-82 1.67552e-82 1.46416e-82 1.2334e-82 9.95195e-83 7.65327e-83 5.58771e-83 3.8608e-83 2.51765e-83 1.54603e-83 8.9252e-84 4.83912e-84 2.46332e-84 1.17762e-84 5.29133e-85 2.23731e-85 8.91526e-86 3.35361e-86 1.19299e-86 4.02071e-87 1.28619e-87 3.91228e-88 1.13355e-88 3.13383e-89 8.2802e-90 2.09417e-90 5.07729e-91 1.18171e-91 2.6438e-92 5.69292e-93 1.18127e-93 2.36463e-94 4.57138e-95 8.5436e-96 1.54513e-96 2.70657e-97 4.596e-98 7.57196e-99 1.21128e-99 1.88286e-100 2.846e-101 4.18593e-102 5.99476e-103 8.36455e-104 1.13779e-104 1.50965e-105 1.95489e-106 2.47186e-107 3.0535e-108 3.68683e-109 4.35297e-110 5.02793e-111 5.68391e-112 6.29124e-113 6.82068e-114 7.24576e-115 7.54509e-116 7.70408e-117 7.71551e-118 7.51381e-119 0 
0 3.19659e-169 6.13635e-168 1.16215e-166 2.17693e-165 4.03284e-164 7.38781e-163 1.33818e-161 2.39639e-160 4.24227e-159 7.42311e-158 1.28372e-156 2.19381e-155 3.70441e-154 6.17984e-153 1.0184e-151 1.65762e-150 2.66452e-149 4.22924e-148 6.62755e-147 1.02525e-145 1.56541e-144 2.35877e-143 3.50697e-142 5.14399e-141 7.44252e-140 1.06199e-138 1.49426e-137 2.07282e-136 2.83432e-135 3.81952e-134 5.07177e-133 6.63462e-132 8.54853e-131 1.08467e-129 1.355e-128 1.6662e-127 2.01633e-126 2.40072e-125 2.81168e-124 3.23836e-123 3.66701e-122 4.08144e-121 4.46387e-120 4.79607e-119 5.06071e-118 5.24275e-117 5.33086e-116 5.31846e-115 5.20454e-114 4.9939e-113 4.69682e-112 4.32828e-111 3.90669e-110 3.45234e-109 2.98573e-108 2.526e-107 2.08964e-106 1.68951e-105 1.33443e-104 1.02909e-103 7.7448e-103 5.68492e-102 4.0677e-101 2.83545e-100 1.9243e-99 1.27061e-98 8.15724e-98 5.08803e-97 3.08106e-96 1.80986e-95 1.03044e-94 5.68118e-94 3.03033e-93 1.56223e-92 7.77586e-92 3.73264e-91 1.726e-90 7.67851e-90 3.28211e-89 1.34605e-88 5.28871e-88 1.98763e-87 7.13323e-87 2.44022e-86 7.9422e-86 2.45444e-85 7.18699e-85 1.98957e-84 5.19492e-84 1.27633e-83 2.94333e-83 6.35523e-83 1.28169e-82 2.40874e-82 4.20992e-82 6.83172e-82 1.02835e-81 1.43576e-81 1.86148e-81 2.24723e-81 2.53753e-81 2.69755e-81 2.72233e-81 2.63358e-81 2.46774e-81 2.26348e-81 2.05469e-81 1.86995e-81 1.73482e-81 1.67291e-81 1.70353e-81 1.8364e-81 2.06588e-81 2.36753e-81 2.7001e-81 3.01369e-81 3.26213e-81 3.41494e-81 3.46407e-81 3.42348e-81 3.32246e-81 3.19613e-81 3.07692e-81 2.98954e-81 2.9497e-81 2.96433e-81 3.03119e-81 3.13834e-81 3.26606e-81 3.39285e-81 3.50352e-81 3.59455e-81 3.67299e-81 3.74907e-81 3.82646e-81 3.89584e-81 3.93584e-81 3.92156e-81 3.83661e-81 3.68179e-81 3.47553e-81 3.24606e-81 3.02071e-81 2.81799e-81 2.64488e-81 2.49813e-81 2.36765e-81 2.24152e-81 2.11227e-81 1.9828e-81 1.86841e-81 1.79279e-81 1.77829e-81 1.83474e-81 1.95247e-81 2.10398e-81 2.25412e-81 2.37326e-81 2.44655e-81 2.47502e-81 2.46975e-81 2.44398e-81 2.40786e-81 2.36797e-81 2.33092e-81 2.30726e-81 2.31182e-81 2.35864e-81 2.45284e-81 2.58451e-81 2.72916e-81 2.85471e-81 2.9315e-81 2.94051e-81 2.87765e-81 2.7545e-81 2.5962e-81 2.43705e-81 2.31386e-81 2.25867e-81 2.2928e-81 2.42388e-81 2.64556e-81 2.93836e-81 3.27105e-81 3.60317e-81 3.89062e-81 4.09447e-81 4.19065e-81 4.17594e-81 4.06671e-81 3.89e-81 3.67086e-81 3.42239e-81 3.14396e-81 2.82815e-81 2.47146e-81 2.08201e-81 1.68e-81 1.29205e-81 9.43415e-82 6.51919e-82 4.25177e-82 2.61132e-82 1.50781e-82 8.17705e-83 4.16357e-83 1.99104e-83 8.94928e-84 3.78538e-84 1.50899e-84 5.67871e-85 2.02101e-85 6.81452e-86 2.18097e-86 6.63731e-87 1.9241e-87 5.32224e-88 1.40701e-88 3.5605e-89 8.63731e-90 2.01145e-90 4.50282e-91 9.70176e-92 2.01432e-92 4.03469e-93 7.80483e-94 1.45959e-94 2.64138e-95 4.62981e-96 7.86694e-97 1.29693e-97 2.07607e-98 3.22925e-99 4.88437e-100 7.18882e-101 1.03022e-101 1.43846e-102 1.95801e-103 2.59973e-104 3.3688e-105 4.26264e-106 5.26934e-107 6.36671e-108 7.52237e-109 8.69493e-110 9.83632e-111 1.08951e-111 1.18205e-112 1.25662e-113 1.30948e-114 1.33804e-115 1.341e-116 1.30688e-117 0 
0 5.69093e-168 1.0916e-166 2.06573e-165 3.86643e-164 7.15702e-163 1.31007e-161 2.3711e-160 4.24279e-159 7.505e-158 1.31219e-156 2.26747e-155 3.87195e-154 6.53297e-153 1.08901e-151 1.79322e-150 2.9165e-149 4.68445e-148 7.42959e-147 1.16337e-145 1.79829e-144 2.74363e-143 4.13092e-142 6.13704e-141 8.99486e-140 1.30041e-138 1.85417e-137 2.60689e-136 3.6135e-135 4.93726e-134 6.6484e-133 8.82142e-132 1.1531e-130 1.48462e-129 1.88232e-128 2.34969e-127 2.88718e-126 3.49126e-125 4.15374e-124 4.86116e-123 5.59471e-122 6.33058e-121 7.04083e-120 7.69488e-119 8.26147e-118 8.71094e-117 9.01771e-116 9.16258e-115 9.13464e-114 8.93253e-113 8.56482e-112 8.04953e-111 7.4126e-110 6.68582e-109 5.90405e-108 5.10246e-107 4.31377e-106 3.56607e-105 2.88122e-104 2.27409e-103 1.75253e-102 1.31802e-101 9.66803e-101 6.91299e-100 4.81553e-99 3.26589e-98 2.15501e-97 1.38258e-96 8.61806e-96 5.21524e-95 3.06152e-94 1.74193e-93 9.59774e-93 5.11616e-92 2.63588e-91 1.31116e-90 6.2901e-90 2.90681e-89 1.29238e-88 5.5209e-88 2.26289e-87 8.88592e-87 3.33767e-86 1.19716e-85 4.09318e-85 1.33151e-84 4.11277e-84 1.20369e-83 3.33056e-83 8.69239e-83 2.13469e-82 4.92078e-82 1.06209e-81 2.14122e-81 4.02285e-81 7.02908e-81 1.1404e-80 1.71628e-80 2.39591e-80 3.10609e-80 3.74964e-80 4.23414e-80 4.50145e-80 4.54327e-80 4.39572e-80 4.11954e-80 3.77917e-80 3.43118e-80 3.12324e-80 2.898e-80 2.79484e-80 2.84592e-80 3.06746e-80 3.44999e-80 3.95282e-80 4.50718e-80 5.02992e-80 5.44411e-80 5.69896e-80 5.78106e-80 5.71364e-80 5.54548e-80 5.33515e-80 5.13667e-80 4.99122e-80 4.92495e-80 4.9494e-80 5.06082e-80 5.23931e-80 5.45202e-80 5.66319e-80 5.84753e-80 5.99918e-80 6.12985e-80 6.25657e-80 6.38544e-80 6.50095e-80 6.56752e-80 6.54373e-80 6.40225e-80 6.1444e-80 5.80078e-80 5.41836e-80 5.04264e-80 4.70447e-80 4.41555e-80 4.17052e-80 3.95261e-80 3.74195e-80 3.52614e-80 3.30998e-80 3.11899e-80 2.99266e-80 2.96833e-80 3.0624e-80 3.25876e-80 3.5116e-80 3.76225e-80 3.96128e-80 4.08387e-80 4.13165e-80 4.12309e-80 4.08027e-80 4.02009e-80 3.95359e-80 3.8918e-80 3.85233e-80 3.8599e-80 3.93795e-80 4.09497e-80 4.31449e-80 4.55567e-80 4.76507e-80 4.89322e-80 4.90838e-80 4.80376e-80 4.59859e-80 4.33482e-80 4.06959e-80 3.86428e-80 3.77227e-80 3.82911e-80 4.04754e-80 4.41693e-80 4.90484e-80 5.45918e-80 6.01254e-80 6.49145e-80 6.83111e-80 6.99144e-80 6.96708e-80 6.78525e-80 6.49091e-80 6.1257e-80 5.7114e-80 5.24695e-80 4.72002e-80 4.12485e-80 3.475e-80 2.80417e-80 2.15677e-80 1.57495e-80 1.08844e-80 7.09966e-81 4.36113e-81 2.51866e-81 1.36621e-81 6.9583e-82 3.32849e-82 1.49658e-82 6.33255e-83 2.52538e-83 9.50758e-84 3.38516e-84 1.14195e-84 3.65654e-85 1.11335e-85 3.22916e-86 8.93689e-87 2.36388e-87 5.98521e-88 1.45276e-88 3.38513e-89 7.58235e-90 1.63466e-90 3.39601e-91 6.80638e-92 1.31746e-92 2.46534e-93 4.46429e-94 7.83e-95 1.33133e-95 2.19623e-96 3.51792e-97 5.47562e-98 8.2876e-99 1.22059e-99 1.75039e-100 2.44566e-101 3.33127e-102 4.4261e-103 5.7394e-104 7.26727e-105 8.98984e-106 1.08696e-106 1.28517e-107 1.48654e-108 1.68288e-109 1.86535e-110 2.02523e-111 2.15454e-112 2.24678e-113 2.29745e-114 2.3042e-115 2.24718e-116 0 