# vtk DataFile Version 3.0
Gray-Scott Simulation Output
ASCII
DATASET STRUCTURED_POINTS
DIMENSIONS 256 256 1
SPACING 1.0 1.0 1.0
ORIGIN 0 0 0
POINT_DATA 65536
SCALARS u double
LOOKUP_TABLE default
0 0 0 0 0 0 0 0 0 0 0 0 0 0 0 0 0 0 0 0 0 0 0 0 0 0 0 0 0 0 0 0 0 0 0 0 0 0 0 0 0 0 0 0 0 0 0 0 0 0 0 0 0 0 0 0 0 0 0 0 0 0 0 0 0 0 0 0 0 0 0 0 0 0 0 0 0 0 0 0 0 0 0 0 0 0 0 0 0 0 0 0 0 0 0 0 0 0 0 0 0 0 0 0 0 0 0 0 0 0 0 0 0 0 0 0 0 0 0 0 0 0 0 0 0 0 0 0 0 0 0 0 0 0 0 0 0 0 0 0 0 0 0 0 0 0 0 0 0 0 0 0 0 0 0 0 0 0 0 0 0 0 0 0 0 0 0 0 0 0 0 0 0 0 0 0 0 0 0 0 0 0 0 0 0 0 0 0 0 0 0 0 0 0 0 0 0 0 0 0 0 0 0 0 0 0 0 0 0 0 0 0 0 0 0 0 0 0 0 0 0 0 0 0 0 0 0 0 0 0 0 0 0 0 0 0 0 0 0 0 0 0 0 0 0 0 0 0 0 0 0 0 0 0 0 0 
0 3.8912e-87 1.73193e-86 7.26423e-86 3.01129e-85 1.23677e-84 5.03299e-84 2.02925e-83 8.10561e-83 3.20734e-82 1.25712e-81 4.88037e-81 1.87644e-80 7.14478e-80 2.6939e-79 1.00571e-78 3.71735e-78 1.36026e-77 4.92719e-77 1.76657e-76 6.26873e-76 2.20142e-75 7.65001e-75 2.63037e-74 8.94804e-74 3.01129e-73 1.00241e-72 3.30044e-72 1.07468e-71 3.46044e-71 1.10174e-70 3.46797e-70 1.07914e-69 3.31923e-69 1.00904e-68 3.03136e-68 8.99874e-68 2.6393e-67 7.64729e-67 2.18871e-66 6.18695e-66 1.72712e-65 4.76068e-65 1.29558e-64 3.4806e-64 9.22953e-64 2.41539e-63 6.23758e-63 1.58932e-62 3.99496e-62 9.90514e-62 2.42212e-61 5.84056e-61 1.3886e-60 3.25464e-60 7.51912e-60 1.71201e-59 3.84111e-59 8.49089e-59 1.84898e-58 3.96578e-58 8.37674e-58 1.74224e-57 3.56746e-57 7.19059e-57 1.42645e-56 2.78466e-56 5.34865e-56 1.01067e-55 1.87845e-55 3.43364e-55 6.1718e-55 1.09071e-54 1.8949e-54 3.23584e-54 5.43066e-54 8.95635e-54 1.45134e-53 2.31059e-53 3.61362e-53 5.55122e-53 8.37576e-53 1.24113e-52 1.80611e-52 2.58097e-52 3.62176e-52 4.99057e-52 6.75272e-52 8.97262e-52 1.17084e-51 1.50055e-51 1.88902e-51 2.33626e-51 2.83923e-51 3.39147e-51 3.98314e-51 4.60135e-51 5.23091e-51 5.85537e-51 6.45826e-51 7.0245e-51 7.54169e-51 8.00116e-51 8.3987e-51 8.73477e-51 9.01423e-51 9.24559e-51 9.4399e-51 9.60944e-51 9.76626e-51 9.92098e-51 1.00818e-50 1.02538e-50 1.04388e-50 1.06358e-50 1.08412e-50 1.10499e-50 1.12563e-50 1.14549e-50 1.16413e-50 1.18127e-50 1.19681e-50 1.2108e-50 1.22344e-50 1.23501e-50 1.24582e-50 1.25613e-50 1.26614e-50 1.27589e-50 1.28531e-50 1.29417e-50 1.30209e-50 1.30863e-50 1.31324e-50 1.31539e-50 1.31457e-50 1.31035e-50 1.3024e-50 1.29056e-50 1.27484e-50 1.25545e-50 1.23274e-50 1.20726e-50 1.17971e-50 1.15087e-50 1.12162e-50 1.09284e-50 1.06541e-50 1.04013e-50 1.01769e-50 9.98633e-51 9.83329e-51 9.71951e-51 9.64478e-51 9.60704e-51 9.60264e-51 9.62676e-51 9.67387e-51 9.73825e-51 9.81445e-51 9.89777e-51 9.98441e-51 1.00717e-50 1.01579e-50 1.02422e-50 1.03243e-50 1.04041e-50 1.04816e-50 1.05567e-50 1.06291e-50 1.06984e-50 1.07643e-50 1.08273e-50 1.08881e-50 1.09488e-50 1.10119e-50 1.10809e-50 1.11595e-50 1.12511e-50 1.13584e-50 1.14824e-50 1.16219e-50 1.17733e-50 1.193e-50 1.20829e-50 1.22208e-50 1.23306e-50 1.23986e-50 1.24113e-50 1.23562e-50 1.22228e-50 1.20032e-50 1.16931e-50 1.12916e-50 1.08016e-50 1.02297e-50 9.58576e-51 8.8828e-51 8.1359e-51 7.36168e-51 6.57742e-51 5.80017e-51 5.0459e-51 4.3288e-51 3.66061e-51 3.05023e-51 2.50354e-51 2.0234e-51 1.60985e-51 1.26054e-51 9.7116e-52 7.36042e-52 5.48676e-52 4.02223e-52 2.89937e-52 2.05486e-52 1.43177e-52 9.80743e-53 6.60406e-53 4.37155e-53 2.84466e-53 1.81972e-53 1.14438e-53 7.07539e-54 4.30097e-54 2.57068e-54 1.51088e-54 8.73275e-55 4.96419e-55 2.77566e-55 1.52669e-55 8.26138e-56 4.39865e-56 2.30464e-56 1.18839e-56 6.03172e-57 3.01374e-57 1.48255e-57 7.1814e-58 3.42582e-58 1.60965e-58 7.4503e-59 3.3974e-59 1.52655e-59 6.75967e-60 2.95018e-60 1.26923e-60 5.38345e-61 2.25146e-61 9.28562e-62 3.77693e-62 1.51494e-62 5.98181e-63 2.29534e-63 7.74108e-64 0 
0 1.73237e-86 7.71096e-86 3.23437e-85 1.34085e-84 5.50733e-84 2.24133e-83 9.03745e-83 3.61017e-82 1.42863e-81 5.6e-81 2.1742e-80 8.36027e-80 3.18358e-79 1.20046e-78 4.48216e-78 1.65688e-77 6.06356e-77 2.19663e-76 7.87664e-76 2.79539e-75 9.81796e-75 3.41223e-74 1.17342e-73 3.99234e-73 1.34374e-72 4.47382e-72 1.47323e-71 4.79791e-71 1.54517e-70 4.92037e-70 1.54908e-69 4.82121e-69 1.48319e-68 4.50975e-68 1.3551e-67 4.0235e-67 1.18033e-66 3.42071e-66 9.79249e-66 2.76873e-65 7.73085e-65 2.13147e-64 5.80203e-64 1.55911e-63 4.13536e-63 1.08251e-62 2.79625e-62 7.12669e-62 1.79187e-61 4.44402e-61 1.08701e-60 2.6219e-60 6.23542e-60 1.4619e-59 3.37839e-59 7.69447e-59 1.72687e-58 3.81847e-58 8.31765e-58 1.78456e-57 3.7706e-57 7.84471e-57 1.6068e-56 3.23968e-56 6.42879e-56 1.25539e-55 2.41202e-55 4.55906e-55 8.4761e-55 1.54981e-54 2.78651e-54 4.92584e-54 8.56007e-54 1.46216e-53 2.45455e-53 4.04911e-53 6.56301e-53 1.04509e-52 1.63481e-52 2.5119e-52 3.79072e-52 5.61814e-52 8.1769e-52 1.16866e-51 1.64014e-51 2.26027e-51 3.05864e-51 4.06443e-51 5.30397e-51 6.79782e-51 8.55775e-51 1.05838e-50 1.2862e-50 1.5363e-50 1.8042e-50 2.08404e-50 2.36892e-50 2.65139e-50 2.92396e-50 3.17981e-50 3.41332e-50 3.62057e-50 3.79968e-50 3.95086e-50 4.07634e-50 4.18e-50 4.26686e-50 4.34249e-50 4.41237e-50 4.48131e-50 4.55303e-50 4.62983e-50 4.71258e-50 4.80077e-50 4.89281e-50 4.98641e-50 5.07899e-50 5.1681e-50 5.25176e-50 5.32869e-50 5.39841e-50 5.46118e-50 5.51789e-50 5.5698e-50 5.61829e-50 5.66457e-50 5.70947e-50 5.75326e-50 5.79557e-50 5.83537e-50 5.87101e-50 5.90042e-50 5.92122e-50 5.93097e-50 5.92737e-50 5.90846e-50 5.87282e-50 5.81971e-50 5.74916e-50 5.66206e-50 5.56007e-50 5.44564e-50 5.32186e-50 5.19231e-50 5.06089e-50 4.9316e-50 4.80837e-50 4.6948e-50 4.594e-50 4.50842e-50 4.43971e-50 4.38866e-50 4.35515e-50 4.33827e-50 4.33638e-50 4.34729e-50 4.36851e-50 4.39748e-50 4.43174e-50 4.46916e-50 4.50806e-50 4.54723e-50 4.5859e-50 4.6237e-50 4.6605e-50 4.6963e-50 4.73107e-50 4.76476e-50 4.79722e-50 4.82829e-50 4.85788e-50 4.88612e-50 4.91342e-50 4.94061e-50 4.9689e-50 4.99983e-50 5.03507e-50 5.0762e-50 5.12437e-50 5.18006e-50 5.24276e-50 5.31082e-50 5.38131e-50 5.45017e-50 5.51229e-50 5.56183e-50 5.59263e-50 5.59856e-50 5.57401e-50 5.51423e-50 5.41572e-50 5.27642e-50 5.09593e-50 4.87553e-50 4.61816e-50 4.32827e-50 4.01165e-50 3.67509e-50 3.32607e-50 2.97237e-50 2.62169e-50 2.28125e-50 1.95745e-50 1.65563e-50 1.37982e-50 1.13272e-50 9.15627e-51 7.28596e-51 5.70574e-51 4.39637e-51 3.3323e-51 2.48421e-51 1.82122e-51 1.31284e-51 9.30455e-52 6.4831e-52 4.4407e-52 2.9901e-52 1.97917e-52 1.28778e-52 8.23706e-53 5.17951e-53 3.20192e-53 1.94609e-53 1.16299e-53 6.83415e-54 3.94934e-54 2.24459e-54 1.25478e-54 6.90017e-55 3.73306e-55 1.98715e-55 1.04091e-55 5.36617e-56 2.72295e-56 1.36018e-56 6.68942e-57 3.23949e-57 1.54497e-57 7.2573e-58 3.35817e-58 1.53095e-58 6.87719e-59 3.04447e-59 1.32838e-59 5.71347e-60 2.42274e-60 1.01298e-60 4.17672e-61 1.69845e-61 6.81083e-62 2.68864e-62 1.03145e-62 3.47795e-63 0 
0 7.26808e-86 3.23528e-85 1.35713e-84 5.6265e-84 2.31117e-83 9.40654e-83 3.79319e-82 1.51538e-81 5.99726e-81 2.35105e-80 9.12885e-80 3.5106e-79 1.33697e-78 5.04202e-78 1.88275e-77 6.96067e-77 2.54766e-76 9.23055e-76 3.31033e-75 1.17499e-74 4.12741e-74 1.4347e-73 4.93454e-73 1.67915e-72 5.65266e-72 1.88231e-71 6.1996e-71 2.01941e-70 6.50478e-70 2.07177e-69 6.52388e-69 2.03086e-68 6.24908e-68 1.9005e-67 5.71196e-67 1.69637e-66 4.97765e-66 1.44293e-65 4.13173e-65 1.16851e-64 3.26358e-64 9.00042e-64 2.45067e-63 6.58725e-63 1.7477e-62 4.57629e-62 1.18246e-61 3.01462e-61 7.58205e-61 1.88101e-60 4.60243e-60 1.11048e-59 2.64183e-59 6.19586e-59 1.43232e-58 3.2633e-58 7.32635e-58 1.62057e-57 3.53126e-57 7.57898e-57 1.60193e-56 3.33398e-56 6.83129e-56 1.37783e-55 2.7351e-55 5.34285e-55 1.0269e-54 1.94165e-54 3.61109e-54 6.60489e-54 1.18793e-53 2.10063e-53 3.6516e-53 6.23924e-53 1.04771e-52 1.72882e-52 2.80293e-52 4.46455e-52 6.98552e-52 1.07358e-51 1.6205e-51 2.40218e-51 3.49688e-51 4.99866e-51 7.01631e-51 9.67033e-51 1.30874e-50 1.73925e-50 2.26981e-50 2.9092e-50 3.66244e-50 4.52949e-50 5.5043e-50 6.57422e-50 7.71999e-50 8.91649e-50 1.01341e-49 1.13408e-49 1.25046e-49 1.35962e-49 1.45916e-49 1.54741e-49 1.62358e-49 1.68775e-49 1.74091e-49 1.7847e-49 1.8213e-49 1.8531e-49 1.88243e-49 1.91138e-49 1.94152e-49 1.97385e-49 2.00874e-49 2.04598e-49 2.08488e-49 2.12447e-49 2.16366e-49 2.20138e-49 2.23681e-49 2.26938e-49 2.2989e-49 2.32547e-49 2.34947e-49 2.37144e-49 2.39196e-49 2.41155e-49 2.43056e-49 2.44912e-49 2.46705e-49 2.48393e-49 2.49906e-49 2.51155e-49 2.52041e-49 2.52458e-49 2.52309e-49 2.51511e-49 2.50004e-49 2.47755e-49 2.44768e-49 2.41077e-49 2.36755e-49 2.31905e-49 2.26658e-49 2.21165e-49 2.15594e-49 2.10112e-49 2.04888e-49 2.00074e-49 1.95801e-49 1.92175e-49 1.89264e-49 1.87103e-49 1.85686e-49 1.84974e-49 1.84898e-49 1.85364e-49 1.86266e-49 1.87496e-49 1.8895e-49 1.90536e-49 1.92184e-49 1.93842e-49 1.95479e-49 1.97078e-49 1.98635e-49 2.00149e-49 2.0162e-49 2.03045e-49 2.04419e-49 2.05734e-49 2.06987e-49 2.08182e-49 2.09337e-49 2.10487e-49 2.11684e-49 2.12992e-49 2.14483e-49 2.16224e-49 2.18265e-49 2.20625e-49 2.23285e-49 2.26173e-49 2.29167e-49 2.32093e-49 2.34735e-49 2.36846e-49 2.38163e-49 2.38426e-49 2.37396e-49 2.34871e-49 2.30701e-49 2.24797e-49 2.17141e-49 2.07786e-49 1.96855e-49 1.84538e-49 1.71076e-49 1.5676e-49 1.41907e-49 1.26848e-49 1.11909e-49 9.74008e-50 8.35955e-50 7.07216e-50 5.8953e-50 4.84051e-50 3.91351e-50 3.11462e-50 2.43945e-50 1.87987e-50 1.42502e-50 1.06243e-50 7.78927e-51 5.61514e-51 3.97969e-51 2.77288e-51 1.89926e-51 1.27878e-51 8.46367e-52 5.5065e-52 3.52173e-52 2.21418e-52 1.36858e-52 8.31667e-53 4.96917e-53 2.91948e-53 1.68676e-53 9.58453e-54 5.35672e-54 2.945e-54 1.59287e-54 8.47684e-55 4.43914e-55 2.28787e-55 1.1606e-55 5.79582e-56 2.84959e-56 1.37957e-56 6.57745e-57 3.08876e-57 1.42883e-57 6.51194e-58 2.92435e-58 1.2942e-58 5.64521e-59 2.42734e-59 1.02898e-59 4.30105e-60 1.7729e-60 7.20737e-61 2.88935e-61 1.14028e-61 4.37336e-62 1.47435e-62 0 
0 3.01375e-85 1.3416e-84 5.62811e-84 2.33352e-83 9.58601e-83 3.90185e-82 1.57356e-81 6.28695e-81 2.48835e-80 9.7558e-80 3.78845e-79 1.45705e-78 5.54963e-78 2.09314e-77 7.81699e-77 2.89037e-76 1.05804e-75 3.83397e-75 1.37517e-74 4.88184e-74 1.71512e-73 5.96277e-73 2.05119e-72 6.9811e-72 2.35052e-71 7.82857e-71 2.57891e-70 8.40202e-70 2.70695e-69 8.6234e-69 2.71604e-68 8.4568e-68 2.6028e-67 7.91761e-67 2.38022e-66 7.07065e-66 2.07526e-65 6.01735e-65 1.72349e-64 4.87558e-64 1.3621e-63 3.75752e-63 1.02341e-62 2.75168e-62 7.30283e-62 1.91281e-61 4.94406e-61 1.26086e-60 3.17221e-60 7.87248e-60 1.92687e-59 4.65078e-59 1.1068e-58 2.59667e-58 6.00494e-58 1.36861e-57 3.07374e-57 6.8015e-57 1.48261e-56 3.18322e-56 6.7307e-56 1.40133e-55 2.87236e-55 5.79551e-55 1.15088e-54 2.249e-54 4.32415e-54 8.17901e-54 1.52168e-53 2.78421e-53 5.0093e-53 8.86101e-53 1.54085e-52 2.63359e-52 4.42375e-52 7.30183e-52 1.18418e-51 1.8867e-51 2.95282e-51 4.53921e-51 6.85318e-51 1.01611e-50 1.47945e-50 2.11518e-50 2.9694e-50 4.09316e-50 5.54012e-50 7.36316e-50 9.60988e-50 1.23174e-49 1.55068e-49 1.91777e-49 2.33042e-49 2.78323e-49 3.26802e-49 3.7741e-49 4.28891e-49 4.79885e-49 5.29035e-49 5.75102e-49 6.17071e-49 6.54237e-49 6.86264e-49 7.132e-49 7.35458e-49 7.53748e-49 7.68988e-49 7.82194e-49 7.94362e-49 8.06368e-49 8.18885e-49 8.32337e-49 8.4688e-49 8.62423e-49 8.78681e-49 8.95241e-49 9.11639e-49 9.27432e-49 9.42264e-49 9.55903e-49 9.6826e-49 9.79382e-49 9.89426e-49 9.98619e-49 1.00721e-48 1.01541e-48 1.02337e-48 1.03114e-48 1.03866e-48 1.04574e-48 1.05209e-48 1.05734e-48 1.06107e-48 1.06283e-48 1.06223e-48 1.0589e-48 1.0526e-48 1.04318e-48 1.03067e-48 1.01521e-48 9.97092e-49 9.76762e-49 9.54765e-49 9.31739e-49 9.08378e-49 8.85397e-49 8.63494e-49 8.43311e-49 8.25404e-49 8.10207e-49 7.98014e-49 7.88965e-49 7.8304e-49 7.80072e-49 7.79767e-49 7.81737e-49 7.85535e-49 7.907e-49 7.96798e-49 8.03449e-49 8.10352e-49 8.17294e-49 8.24142e-49 8.30832e-49 8.37343e-49 8.43675e-49 8.49829e-49 8.55794e-49 8.61544e-49 8.67048e-49 8.72292e-49 8.77292e-49 8.82125e-49 8.86935e-49 8.91939e-49 8.97411e-49 9.0365e-49 9.10938e-49 9.19486e-49 9.29382e-49 9.40537e-49 9.5266e-49 9.65235e-49 9.77537e-49 9.88656e-49 9.97553e-49 1.00313e-48 1.00428e-48 1.00002e-48 9.89472e-49 9.72018e-49 9.47277e-49 9.15166e-49 8.75901e-49 8.29994e-49 7.7823e-49 7.21632e-49 6.61407e-49 5.98889e-49 5.3547e-49 4.72532e-49 4.11373e-49 3.53153e-49 2.98837e-49 2.49164e-49 2.04625e-49 1.65469e-49 1.31713e-49 1.03177e-49 7.95191e-50 6.02852e-50 4.49493e-50 3.29567e-50 2.37586e-50 1.68389e-50 1.17325e-50 8.03573e-51 5.41015e-51 3.58044e-51 2.32921e-51 1.48948e-51 9.36333e-52 5.78651e-52 3.51576e-52 2.10024e-52 1.23367e-52 7.1261e-53 4.04824e-53 2.26197e-53 1.24326e-53 6.72265e-54 3.57663e-54 1.87248e-54 9.64765e-55 4.89267e-55 2.44257e-55 1.20055e-55 5.81044e-56 2.76942e-56 1.30011e-56 6.01229e-57 2.73925e-57 1.22975e-57 5.44063e-58 2.37243e-58 1.01978e-58 4.32167e-59 1.80586e-59 7.4415e-60 3.02429e-60 1.21204e-60 4.78193e-61 1.83353e-61 6.17986e-62 0 
0 1.23814e-84 5.51205e-84 2.3125e-83 9.5888e-83 3.93936e-82 1.6036e-81 6.46764e-81 2.58431e-80 1.02296e-79 4.01102e-79 1.55776e-78 5.99187e-78 2.28247e-77 8.60978e-77 3.21581e-76 1.18922e-75 4.35383e-75 1.5779e-74 5.66047e-74 2.00978e-73 7.06203e-73 2.45559e-72 8.44868e-72 2.87598e-71 9.68516e-71 3.22633e-70 1.06304e-69 3.46406e-69 1.11628e-68 3.55685e-68 1.12052e-67 3.48971e-67 1.0743e-66 3.26878e-66 9.82916e-66 2.92059e-65 8.57428e-65 2.48684e-64 7.12475e-64 2.0161e-63 5.63403e-63 1.55468e-62 4.23564e-62 1.1392e-61 3.02435e-61 7.92413e-61 2.04882e-60 5.22676e-60 1.31545e-59 3.26568e-59 7.99589e-59 1.9306e-58 4.59612e-58 1.07869e-57 2.49545e-57 5.68961e-57 1.2783e-56 2.82965e-56 6.17049e-56 1.32534e-55 2.80341e-55 5.83893e-55 1.19729e-54 2.41668e-54 4.80091e-54 9.38529e-54 1.8052e-53 3.41576e-53 6.35726e-53 1.16361e-52 2.0943e-52 3.70594e-52 6.44651e-52 1.10219e-51 1.852e-51 3.05787e-51 4.96062e-51 7.90578e-51 1.23765e-50 1.90305e-50 2.87387e-50 4.26198e-50 6.20665e-50 8.8753e-50 1.24616e-49 1.71799e-49 2.32558e-49 3.09111e-49 4.03457e-49 5.17148e-49 6.51063e-49 8.05178e-49 9.7839e-49 1.16842e-48 1.37181e-48 1.58407e-48 1.79988e-48 2.01355e-48 2.21935e-48 2.4121e-48 2.58752e-48 2.74267e-48 2.87616e-48 2.98821e-48 3.08056e-48 3.15624e-48 3.21909e-48 3.27341e-48 3.32339e-48 3.37271e-48 3.42421e-48 3.47965e-48 3.53971e-48 3.604e-48 3.67134e-48 3.73999e-48 3.80801e-48 3.87354e-48 3.9351e-48 3.9917e-48 4.04298e-48 4.08912e-48 4.13079e-48 4.16892e-48 4.20454e-48 4.23856e-48 4.27162e-48 4.3039e-48 4.33515e-48 4.36459e-48 4.39102e-48 4.41289e-48 4.42844e-48 4.43584e-48 4.43339e-48 4.41964e-48 4.39351e-48 4.35446e-48 4.30251e-48 4.23828e-48 4.16302e-48 4.07855e-48 3.98713e-48 3.89144e-48 3.79434e-48 3.69883e-48 3.6078e-48 3.52393e-48 3.44952e-48 3.38639e-48 3.33576e-48 3.29821e-48 3.27365e-48 3.26139e-48 3.26019e-48 3.26845e-48 3.28428e-48 3.30579e-48 3.33115e-48 3.35879e-48 3.38745e-48 3.41626e-48 3.44467e-48 3.4724e-48 3.4994e-48 3.52565e-48 3.55117e-48 3.5759e-48 3.59975e-48 3.62259e-48 3.64435e-48 3.66509e-48 3.68513e-48 3.70507e-48 3.72582e-48 3.7485e-48 3.77437e-48 3.80462e-48 3.84012e-48 3.88124e-48 3.92763e-48 3.97808e-48 4.03045e-48 4.08172e-48 4.12811e-48 4.16531e-48 4.18871e-48 4.19376e-48 4.17625e-48 4.13263e-48 4.06024e-48 3.95748e-48 3.82399e-48 3.66063e-48 3.46951e-48 3.25388e-48 3.01798e-48 2.76681e-48 2.50594e-48 2.24118e-48 1.97828e-48 1.72269e-48 1.47926e-48 1.25205e-48 1.04417e-48 8.57707e-49 6.93715e-49 5.52293e-49 4.32701e-49 3.33529e-49 2.52883e-49 1.88567e-49 1.38265e-49 9.96787e-50 7.06475e-50 4.92225e-50 3.37118e-50 2.26953e-50 1.50184e-50 9.76897e-51 6.24623e-51 3.92598e-51 2.42583e-51 1.4736e-51 8.8012e-52 5.16866e-52 2.98489e-52 1.69525e-52 9.46986e-53 5.20357e-53 2.81293e-53 1.49612e-53 7.83033e-54 4.03324e-54 2.04477e-54 1.02049e-54 5.01424e-55 2.42601e-55 1.15593e-55 5.42476e-56 2.50784e-56 1.14222e-56 5.12614e-57 2.26716e-57 9.88291e-58 4.24677e-58 1.79913e-58 7.51547e-59 3.09596e-59 1.25783e-59 5.03942e-60 1.98763e-60 7.61898e-61 2.56738e-61 0 
0 5.04005e-84 2.24392e-83 9.41474e-83 3.90414e-82 1.60407e-81 6.53029e-81 2.63405e-80 1.0526e-79 4.16701e-79 1.63406e-78 6.34693e-78 2.44161e-77 9.30192e-77 3.50927e-76 1.31091e-75 4.84848e-75 1.77532e-74 6.43507e-74 2.30884e-73 8.19898e-73 2.88147e-72 1.00211e-71 3.44848e-71 1.1741e-70 3.95468e-70 1.31765e-69 4.34239e-69 1.41533e-68 4.56183e-68 1.45389e-67 4.58127e-67 1.42712e-66 4.39444e-66 1.33743e-65 4.02267e-65 1.1956e-64 3.51099e-64 1.0186e-63 2.91909e-63 8.2626e-63 2.3097e-62 6.37542e-62 1.7375e-61 4.67461e-61 1.24142e-60 3.25373e-60 8.41555e-60 2.14763e-59 5.40699e-59 1.34279e-58 3.28896e-58 7.94411e-58 1.89193e-57 4.44197e-57 1.028e-56 2.34473e-56 5.27002e-56 1.16703e-55 2.5459e-55 5.47043e-55 1.15759e-54 2.41198e-54 4.94783e-54 9.99097e-54 1.98557e-53 3.88313e-53 7.47188e-53 1.41437e-52 2.63338e-52 4.82189e-52 8.68181e-52 1.53684e-51 2.6743e-51 4.574e-51 7.68822e-51 1.26983e-50 2.06062e-50 3.28501e-50 5.14413e-50 7.9119e-50 1.1951e-49 1.77276e-49 2.58218e-49 3.69312e-49 5.18627e-49 7.15097e-49 9.68112e-49 1.28691e-48 1.67981e-48 2.15325e-48 2.71087e-48 3.35252e-48 4.07355e-48 4.8644e-48 5.71061e-48 6.59336e-48 7.49052e-48 8.37823e-48 9.2327e-48 1.00323e-47 1.07592e-47 1.14013e-47 1.19528e-47 1.24148e-47 1.27945e-47 1.31047e-47 1.33615e-47 1.35828e-47 1.37861e-47 1.39867e-47 1.41965e-47 1.44229e-47 1.46687e-47 1.49323e-47 1.52087e-47 1.54908e-47 1.57705e-47 1.604e-47 1.62933e-47 1.65261e-47 1.6737e-47 1.69268e-47 1.70981e-47 1.72549e-47 1.74014e-47 1.75413e-47 1.76773e-47 1.78103e-47 1.7939e-47 1.80604e-47 1.81694e-47 1.82597e-47 1.83241e-47 1.83549e-47 1.83451e-47 1.82888e-47 1.81814e-47 1.80208e-47 1.7807e-47 1.75425e-47 1.72326e-47 1.68846e-47 1.6508e-47 1.61137e-47 1.57136e-47 1.53201e-47 1.4945e-47 1.45995e-47 1.4293e-47 1.4033e-47 1.38246e-47 1.36701e-47 1.35692e-47 1.3519e-47 1.35144e-47 1.35487e-47 1.36141e-47 1.37029e-47 1.38075e-47 1.39213e-47 1.40393e-47 1.41578e-47 1.42746e-47 1.43886e-47 1.44995e-47 1.46074e-47 1.47123e-47 1.4814e-47 1.49121e-47 1.5006e-47 1.50955e-47 1.51808e-47 1.52632e-47 1.53451e-47 1.54304e-47 1.55236e-47 1.56299e-47 1.57544e-47 1.59005e-47 1.60699e-47 1.62612e-47 1.64694e-47 1.66856e-47 1.68975e-47 1.70895e-47 1.72437e-47 1.73411e-47 1.7363e-47 1.72919e-47 1.71132e-47 1.68156e-47 1.63926e-47 1.58425e-47 1.51688e-47 1.438e-47 1.34896e-47 1.25148e-47 1.14763e-47 1.03971e-47 9.30118e-48 8.21238e-48 7.1533e-48 6.14411e-48 5.20171e-48 4.3391e-48 3.56503e-48 2.88398e-48 2.29646e-48 1.79947e-48 1.38723e-48 1.05192e-48 7.84447e-49 5.75219e-49 4.14702e-49 2.93922e-49 2.04781e-49 1.40245e-49 9.44084e-50 6.2468e-50 4.06284e-50 2.5974e-50 1.6323e-50 1.0084e-50 6.12446e-51 3.65709e-51 2.1472e-51 1.2397e-51 7.03898e-52 3.93098e-52 2.15941e-52 1.16699e-52 6.20502e-53 3.24655e-53 1.6717e-53 8.47245e-54 4.22699e-54 2.07627e-54 1.00421e-54 4.7832e-55 2.24398e-55 1.03703e-55 4.72164e-56 2.11829e-56 9.36547e-57 4.08117e-57 1.75312e-57 7.42457e-58 3.10042e-58 1.27678e-58 5.18562e-59 2.07692e-59 8.18916e-60 3.13814e-60 1.05722e-60 0 
0 2.0327e-83 9.05057e-83 3.79763e-82 1.57495e-81 6.47148e-81 2.63484e-80 1.06289e-79 4.2479e-79 1.68182e-78 6.5959e-78 2.56225e-77 9.85798e-77 3.75613e-76 1.41724e-75 5.29493e-75 1.95865e-74 7.17289e-74 2.60039e-73 9.33145e-73 3.31428e-72 1.16498e-71 4.0523e-71 1.39474e-70 4.7496e-70 1.60011e-69 5.33246e-69 1.75772e-68 5.73025e-68 1.84737e-67 5.88908e-67 1.85613e-66 5.78347e-66 1.78133e-65 5.42282e-65 1.63149e-64 4.85037e-64 1.42476e-63 4.13467e-63 1.18527e-62 3.35596e-62 9.38405e-62 2.59109e-61 7.06381e-61 1.9011e-60 5.05037e-60 1.32415e-59 3.42603e-59 8.74631e-59 2.20282e-58 5.47259e-58 1.34093e-57 3.2401e-57 7.71945e-57 1.81312e-56 4.19775e-56 9.57836e-56 2.1537e-55 4.77127e-55 1.04129e-54 2.23836e-54 4.73851e-54 9.87741e-54 2.02705e-53 4.09484e-53 8.14134e-53 1.59284e-52 3.06618e-52 5.80639e-52 1.08151e-51 1.98111e-51 3.56837e-51 6.31909e-51 1.10002e-50 1.8821e-50 3.16465e-50 5.22867e-50 8.48764e-50 1.35351e-49 2.12014e-49 3.26177e-49 4.92822e-49 7.31204e-49 1.06529e-48 1.52392e-48 2.14042e-48 2.9517e-48 3.99656e-48 5.31314e-48 6.93572e-48 8.89087e-48 1.11934e-47 1.38426e-47 1.6819e-47 2.00828e-47 2.35739e-47 2.72143e-47 3.09124e-47 3.45693e-47 3.80868e-47 4.13753e-47 4.43617e-47 4.69958e-47 4.92543e-47 5.11418e-47 5.26891e-47 5.39486e-47 5.49876e-47 5.58801e-47 5.66987e-47 5.75069e-47 5.83537e-47 5.92696e-47 6.02661e-47 6.13368e-47 6.24614e-47 6.36102e-47 6.475e-47 6.5849e-47 6.68816e-47 6.78312e-47 6.86911e-47 6.94647e-47 7.0163e-47 7.08019e-47 7.13989e-47 7.19694e-47 7.25242e-47 7.30667e-47 7.35925e-47 7.40886e-47 7.45346e-47 7.49045e-47 7.51684e-47 7.52956e-47 7.52571e-47 7.50283e-47 7.45911e-47 7.39362e-47 7.30637e-47 7.19842e-47 7.07188e-47 6.92978e-47 6.77597e-47 6.61492e-47 6.45152e-47 6.29078e-47 6.13759e-47 5.99647e-47 5.87132e-47 5.7652e-47 5.68015e-47 5.61716e-47 5.57607e-47 5.55568e-47 5.55393e-47 5.56805e-47 5.59489e-47 5.63122e-47 5.67396e-47 5.72045e-47 5.76859e-47 5.81691e-47 5.8645e-47 5.91095e-47 5.95613e-47 6.00007e-47 6.0428e-47 6.08424e-47 6.12422e-47 6.16252e-47 6.19899e-47 6.23376e-47 6.26733e-47 6.30072e-47 6.33543e-47 6.37339e-47 6.41674e-47 6.46748e-47 6.52713e-47 6.59632e-47 6.67451e-47 6.75966e-47 6.84819e-47 6.93503e-47 7.0138e-47 7.0772e-47 7.11747e-47 7.12689e-47 7.09833e-47 7.02573e-47 6.90452e-47 6.73193e-47 6.50725e-47 6.23185e-47 5.90919e-47 5.54466e-47 5.14536e-47 4.71972e-47 4.27711e-47 3.82737e-47 3.38031e-47 2.94522e-47 2.5304e-47 2.14284e-47 1.78793e-47 1.46931e-47 1.18887e-47 9.46849e-48 7.42057e-48 5.72137e-48 4.3389e-48 3.23592e-48 2.37296e-48 1.71083e-48 1.21256e-48 8.44789e-49 5.78526e-49 3.89415e-49 2.57641e-49 1.67546e-49 1.07097e-49 6.72922e-50 4.15639e-50 2.52384e-50 1.50672e-50 8.84427e-51 5.10498e-51 2.89781e-51 1.61785e-51 8.88474e-52 4.80001e-52 2.55143e-52 1.33451e-52 6.86934e-53 3.48032e-53 1.73577e-53 8.52306e-54 4.12085e-54 1.96212e-54 9.20182e-55 4.251e-55 1.93481e-55 8.67716e-56 3.83502e-56 1.67059e-56 7.17374e-57 3.03706e-57 1.2678e-57 5.21915e-58 2.11903e-58 8.48423e-59 3.34418e-59 1.28112e-59 4.31496e-60 0 
0 8.12188e-83 3.61651e-82 1.51762e-81 6.29442e-81 2.58663e-80 1.05324e-79 4.24919e-79 1.6984e-78 6.72505e-78 2.63779e-77 1.02481e-76 3.94335e-76 1.50271e-75 5.67074e-75 2.11895e-74 7.83939e-74 2.87137e-73 1.04113e-72 3.73671e-72 1.32741e-71 4.66677e-71 1.6236e-70 5.5893e-70 1.90374e-69 6.4149e-69 2.13827e-68 7.04987e-68 2.29882e-67 7.41289e-67 2.36367e-66 7.45169e-66 2.32246e-65 7.15512e-65 2.1788e-64 6.55689e-64 1.9499e-63 5.72938e-63 1.66317e-62 4.76919e-62 1.35077e-61 3.7783e-61 1.04359e-60 2.846e-60 7.66214e-60 2.03621e-59 5.34063e-59 1.38231e-58 3.53019e-58 8.8944e-58 2.21054e-57 5.41853e-57 1.3098e-56 3.12182e-56 7.33543e-56 1.699e-55 3.87837e-55 8.7242e-55 1.93356e-54 4.22163e-54 9.07873e-54 1.92276e-53 4.00972e-53 8.23233e-53 1.66373e-52 3.30925e-52 6.47727e-52 1.24739e-51 2.36318e-51 4.40355e-51 8.06973e-51 1.45411e-50 2.57605e-50 4.48609e-50 7.67849e-50 1.29157e-49 2.13471e-49 3.46642e-49 5.52963e-49 8.6643e-49 1.33336e-48 2.01513e-48 2.99061e-48 4.35802e-48 6.23548e-48 8.75961e-48 1.20816e-47 1.63604e-47 2.17521e-47 2.8397e-47 3.64035e-47 4.58317e-47 5.66778e-47 6.88609e-47 8.2217e-47 9.64987e-47 1.11385e-46 1.26499e-46 1.41436e-46 1.55791e-46 1.692e-46 1.81362e-46 1.92073e-46 2.0124e-46 2.08882e-46 2.15128e-46 2.20193e-46 2.24356e-46 2.2792e-46 2.31183e-46 2.34406e-46 2.3779e-46 2.4146e-46 2.45462e-46 2.49772e-46 2.54306e-46 2.58943e-46 2.63547e-46 2.67988e-46 2.72161e-46 2.75999e-46 2.79474e-46 2.826e-46 2.85421e-46 2.88001e-46 2.90413e-46 2.92718e-46 2.94961e-46 2.97156e-46 2.99285e-46 3.01294e-46 3.03103e-46 3.04605e-46 3.05678e-46 3.06198e-46 3.06048e-46 3.05128e-46 3.03363e-46 3.00716e-46 2.97188e-46 2.92821e-46 2.87699e-46 2.81947e-46 2.7572e-46 2.692e-46 2.62584e-46 2.56076e-46 2.49874e-46 2.44161e-46 2.39096e-46 2.34802e-46 2.31362e-46 2.28816e-46 2.27157e-46 2.26337e-46 2.26272e-46 2.26848e-46 2.27939e-46 2.29413e-46 2.31144e-46 2.33026e-46 2.34973e-46 2.36926e-46 2.38848e-46 2.40724e-46 2.42547e-46 2.44322e-46 2.46047e-46 2.47721e-46 2.49336e-46 2.50883e-46 2.52357e-46 2.53762e-46 2.55118e-46 2.56466e-46 2.57867e-46 2.594e-46 2.61151e-46 2.63202e-46 2.65615e-46 2.68416e-46 2.71585e-46 2.75038e-46 2.78632e-46 2.8216e-46 2.85365e-46 2.8795e-46 2.896e-46 2.90003e-46 2.88868e-46 2.85947e-46 2.81055e-46 2.74077e-46 2.64982e-46 2.53824e-46 2.4074e-46 2.25949e-46 2.09735e-46 1.92441e-46 1.74446e-46 1.5615e-46 1.37952e-46 1.20231e-46 1.03327e-46 8.75248e-47 7.30472e-47 6.00439e-47 4.8594e-47 3.87091e-47 3.03418e-47 2.33973e-47 1.77457e-47 1.32357e-47 9.70654e-48 6.99828e-48 4.96005e-48 3.45557e-48 2.36629e-48 1.59266e-48 1.05361e-48 6.85076e-49 4.37839e-49 2.75058e-49 1.69859e-49 1.03119e-49 6.15468e-50 3.61182e-50 2.08421e-50 1.18275e-50 6.60135e-51 3.62414e-51 1.95733e-51 1.04007e-51 5.43819e-52 2.79832e-52 1.41726e-52 7.06593e-53 3.46829e-53 1.67629e-53 7.97863e-54 3.74039e-54 1.72732e-54 7.85889e-55 3.52322e-55 1.55658e-55 6.7782e-56 2.90959e-56 1.23135e-56 5.13837e-57 2.11455e-57 8.58231e-58 3.43501e-58 1.3535e-58 5.18348e-59 1.74541e-59 0 
0 3.21477e-82 1.43158e-81 6.00797e-81 2.49207e-80 1.02419e-79 4.1708e-79 1.68285e-78 6.72712e-78 2.66402e-77 1.04505e-76 4.06063e-76 1.5627e-75 5.9559e-75 2.24789e-74 8.40082e-74 3.10851e-73 1.13876e-72 4.12972e-72 1.48246e-71 5.26719e-71 1.85213e-70 6.44496e-70 2.21914e-69 7.56009e-69 2.54802e-68 8.49517e-68 2.8015e-67 9.1373e-67 2.94718e-66 9.39973e-66 2.96412e-65 9.2407e-65 2.8477e-64 8.67392e-64 2.61109e-63 7.7672e-63 2.28293e-62 6.62913e-62 1.90154e-61 5.38747e-61 1.50745e-60 4.16512e-60 1.13627e-59 3.06023e-59 8.13548e-59 2.13459e-58 5.52702e-58 1.41206e-57 3.55911e-57 8.84904e-57 2.16998e-56 5.24758e-56 1.25124e-55 2.94133e-55 6.8155e-55 1.55647e-54 3.50273e-54 7.76659e-54 1.69646e-53 3.64992e-53 7.73353e-53 1.61347e-52 3.3141e-52 6.70073e-52 1.33341e-51 2.61108e-51 5.03065e-51 9.53472e-51 1.77748e-50 3.25872e-50 5.87448e-50 1.04113e-49 1.81383e-49 3.10581e-49 5.22617e-49 8.64101e-49 1.40366e-48 2.23987e-48 3.51075e-48 5.40439e-48 8.17002e-48 1.21281e-47 1.76777e-47 2.52987e-47 3.55463e-47 4.90348e-47 6.64095e-47 8.83044e-47 1.15288e-46 1.478e-46 1.8608e-46 2.30111e-46 2.7956e-46 3.33753e-46 3.91682e-46 4.52036e-46 5.13281e-46 5.73765e-46 6.3185e-46 6.86046e-46 7.35143e-46 7.78315e-46 8.15184e-46 8.45843e-46 8.70819e-46 8.90998e-46 9.0751e-46 9.21596e-46 9.34469e-46 9.47191e-46 9.60578e-46 9.75139e-46 9.91065e-46 1.00825e-45 1.02637e-45 1.04491e-45 1.06334e-45 1.08112e-45 1.09784e-45 1.11321e-45 1.12713e-45 1.13965e-45 1.15094e-45 1.16127e-45 1.17093e-45 1.18016e-45 1.18915e-45 1.19795e-45 1.20649e-45 1.21456e-45 1.22183e-45 1.22787e-45 1.2322e-45 1.23432e-45 1.23374e-45 1.23007e-45 1.22301e-45 1.21241e-45 1.19826e-45 1.18075e-45 1.16021e-45 1.13713e-45 1.11214e-45 1.08598e-45 1.05942e-45 1.0333e-45 1.00842e-45 9.85493e-46 9.65172e-46 9.47949e-46 9.34159e-46 9.2396e-46 9.17325e-46 9.14058e-46 9.13818e-46 9.16152e-46 9.20547e-46 9.26472e-46 9.33425e-46 9.40974e-46 9.48779e-46 9.56601e-46 9.64297e-46 9.718e-46 9.79098e-46 9.86196e-46 9.931e-46 9.99801e-46 1.00627e-45 1.01247e-45 1.01837e-45 1.02399e-45 1.02942e-45 1.03481e-45 1.04042e-45 1.04655e-45 1.05356e-45 1.06178e-45 1.07145e-45 1.0827e-45 1.09543e-45 1.10931e-45 1.12377e-45 1.13798e-45 1.15091e-45 1.16137e-45 1.16808e-45 1.16979e-45 1.16532e-45 1.15368e-45 1.13412e-45 1.10616e-45 1.06968e-45 1.02487e-45 9.72296e-46 9.12807e-46 8.47552e-46 7.779e-46 7.05378e-46 6.31596e-46 5.58163e-46 4.86611e-46 4.18318e-46 3.54445e-46 2.95894e-46 2.43281e-46 1.96933e-46 1.56905e-46 1.23009e-46 9.48689e-47 7.19616e-47 5.36775e-47 3.9367e-47 2.83838e-47 2.0117e-47 1.40146e-47 9.59631e-48 6.45832e-48 4.27193e-48 2.7773e-48 1.77471e-48 1.11469e-48 6.88223e-49 4.17714e-49 2.49251e-49 1.46232e-49 8.43595e-50 4.78584e-50 2.67031e-50 1.46553e-50 7.91239e-51 4.20297e-51 2.19683e-51 1.13001e-51 5.72106e-52 2.85125e-52 1.399e-52 6.75906e-53 3.21589e-53 1.50703e-53 6.95687e-54 3.16399e-54 1.4179e-54 6.26198e-55 2.72577e-55 1.16961e-55 4.948e-56 2.06401e-56 8.49072e-57 3.44486e-57 1.37829e-57 5.42897e-58 2.07844e-58 6.99683e-59 0 