# vtk DataFile Version 3.0
Gray-Scott Simulation Output
ASCII
DATASET STRUCTURED_POINTS
DIMENSIONS 256 256 1
SPACING 1.0 1.0 1.0
ORIGIN 0 0 0
POINT_DATA 65536
SCALARS u double
LOOKUP_TABLE default
0 0 0 0 0 0 0 0 0 0 0 0 0 0 0 0 0 0 0 0 0 0 0 0 0 0 0 0 0 0 0 0 0 0 0 0 0 0 0 0 0 0 0 0 0 0 0 0 0 0 0 0 0 0 0 0 0 0 0 0 0 0 0 0 0 0 0 0 0 0 0 0 0 0 0 0 0 0 0 0 0 0 0 0 0 0 0 0 0 0 0 0 0 0 0 0 0 0 0 0 0 0 0 0 0 0 0 0 0 0 0 0 0 0 0 0 0 0 0 0 0 0 0 0 0 0 0 0 0 0 0 0 0 0 0 0 0 0 0 0 0 0 0 0 0 0 0 0 0 0 0 0 0 0 0 0 0 0 0 0 0 0 0 0 0 0 0 0 0 0 0 0 0 0 0 0 0 0 0 0 0 0 0 0 0 0 0 0 0 0 0 0 0 0 0 0 0 0 0 0 0 0 0 0 0 0 0 0 0 0 0 0 0 0 0 0 0 0 0 0 0 0 0 0 0 0 0 0 0 0 0 0 0 0 0 0 0 0 0 0 0 0 0 0 0 0 0 0 0 0 0 0 0 0 0 0 
0 9.50741e-226 3.63887e-224 1.37554e-222 5.13833e-221 1.89658e-219 6.91634e-218 2.49166e-216 8.86668e-215 3.11634e-213 1.08166e-211 3.70723e-210 1.25449e-208 4.19074e-207 1.38187e-205 4.49716e-204 1.44427e-202 4.57659e-201 1.43072e-199 4.41193e-198 1.34184e-196 4.02443e-195 1.19008e-193 3.46934e-192 9.96892e-191 2.82298e-189 7.87688e-188 2.16527e-186 5.86276e-185 1.56332e-183 4.10455e-182 1.0609e-180 2.69887e-179 6.75627e-178 1.66401e-176 4.03117e-175 9.60371e-174 2.24946e-172 5.17902e-171 1.17176e-169 2.60461e-168 5.68651e-167 1.21908e-165 2.56553e-164 5.29857e-163 1.07361e-161 2.13356e-160 4.15715e-159 7.93917e-158 1.48557e-156 2.72265e-155 4.88555e-154 8.58003e-153 1.47415e-151 2.47681e-150 4.06771e-149 6.52704e-148 1.02279e-146 1.56439e-145 2.33435e-144 3.39636e-143 4.8155e-142 6.6495e-141 8.93687e-140 1.16827e-138 1.48445e-137 1.83202e-136 2.19434e-135 2.54879e-134 2.86845e-133 3.12497e-132 3.29237e-131 3.35111e-130 3.29162e-129 3.11648e-128 2.84058e-127 2.48918e-126 2.09405e-125 1.6886e-124 1.30301e-123 9.60432e-123 6.74888e-122 4.51146e-121 2.86228e-120 1.71915e-119 9.74787e-119 5.20193e-118 2.60379e-117 1.21787e-116 5.3007e-116 2.13692e-115 7.93806e-115 2.70151e-114 8.36911e-114 2.34353e-113 5.88649e-113 1.31569e-112 2.5961e-112 4.49139e-112 6.78455e-112 8.95686e-112 1.04254e-111 1.08959e-111 1.05053e-111 9.64365e-112 8.65909e-112 7.70572e-112 6.80054e-112 5.94724e-112 5.21011e-112 4.72367e-112 4.6422e-112 5.08149e-112 6.09477e-112 7.63036e-112 9.45529e-112 1.1176e-111 1.24169e-111 1.29946e-111 1.29349e-111 1.23901e-111 1.15851e-111 1.07732e-111 1.0137e-111 9.71252e-112 9.46402e-112 9.43518e-112 9.74889e-112 1.04264e-111 1.12796e-111 1.20185e-111 1.24465e-111 1.25713e-111 1.25804e-111 1.27044e-111 1.30756e-111 1.36641e-111 1.4262e-111 1.45293e-111 1.41873e-111 1.32436e-111 1.20076e-111 1.08512e-111 9.95391e-112 9.28747e-112 8.78181e-112 8.42155e-112 8.17758e-112 7.92526e-112 7.51002e-112 6.88617e-112 6.15946e-112 5.54425e-112 5.29775e-112 5.60257e-112 6.42807e-112 7.48931e-112 8.38926e-112 8.86977e-112 8.94304e-112 8.78649e-112 8.56797e-112 8.38292e-112 8.26314e-112 8.16207e-112 7.98283e-112 7.69708e-112 7.43472e-112 7.43044e-112 7.8544e-112 8.67021e-112 9.62881e-112 1.04167e-111 1.0843e-111 1.08742e-111 1.05283e-111 9.83012e-112 8.8777e-112 7.87875e-112 7.0878e-112 6.70653e-112 6.81625e-112 7.3879e-112 8.35197e-112 9.65493e-112 1.12387e-111 1.29547e-111 1.45189e-111 1.55959e-111 1.59608e-111 1.55972e-111 1.46987e-111 1.36054e-111 1.26446e-111 1.19246e-111 1.12636e-111 1.03552e-111 9.03678e-112 7.39975e-112 5.67008e-112 4.04785e-112 2.66306e-112 1.59273e-112 8.56989e-113 4.12835e-113 1.7807e-113 6.90018e-114 2.41412e-114 7.66931e-115 2.22514e-115 5.92888e-116 1.45831e-116 3.32706e-117 7.07121e-118 1.40562e-118 2.62267e-119 4.60831e-120 7.64809e-121 1.20214e-121 1.79403e-122 2.54777e-123 3.45029e-124 4.46431e-125 5.52873e-126 6.56428e-127 7.48344e-128 8.20325e-129 8.65799e-130 8.80911e-131 8.65036e-132 8.20721e-133 7.53112e-134 6.69027e-135 5.75891e-136 4.80753e-137 3.89528e-138 3.06565e-139 2.34526e-140 1.74518e-141 1.26403e-142 8.9168e-144 6.12995e-145 4.10908e-146 2.68725e-147 1.71542e-148 1.06942e-149 6.51397e-151 3.87846e-152 2.25828e-153 1.28642e-154 7.1721e-156 3.91506e-157 2.09324e-158 1.09658e-159 5.61669e-161 0 
0 3.63908e-224 1.39055e-222 5.24788e-221 1.95716e-219 7.21225e-218 2.62585e-216 9.44451e-215 3.35544e-213 1.17743e-211 4.08019e-210 1.39618e-208 4.71694e-207 1.57322e-205 5.17928e-204 1.68286e-202 5.39594e-201 1.70714e-199 5.32836e-198 1.64051e-196 4.98154e-195 1.4917e-193 4.40422e-192 1.28191e-190 3.6777e-189 1.03982e-187 2.89683e-186 7.95065e-185 2.1494e-183 5.72251e-182 1.50014e-180 3.87137e-179 9.8334e-178 2.45786e-176 6.04417e-175 1.46199e-173 3.47766e-172 8.13321e-171 1.86968e-169 4.22373e-168 9.37429e-167 2.04353e-165 4.3743e-164 9.19173e-163 1.8955e-161 3.83492e-160 7.6096e-159 1.48048e-157 2.82312e-156 5.2747e-155 9.65274e-154 1.72952e-152 3.03288e-151 5.20314e-150 8.72919e-149 1.4315e-147 2.29361e-146 3.58882e-145 5.48118e-144 8.16697e-143 1.18652e-141 1.67986e-140 2.31628e-139 3.10856e-138 4.05781e-137 5.14858e-136 6.34496e-135 7.58896e-134 8.80226e-133 9.89212e-132 1.07615e-130 1.1322e-129 1.15078e-128 1.12877e-127 1.06722e-126 9.71386e-126 8.50042e-125 7.14123e-124 5.75065e-123 4.43146e-122 3.26195e-121 2.28906e-120 1.52813e-119 9.68236e-119 5.8078e-118 3.28883e-117 1.75282e-116 8.76248e-116 4.09334e-115 1.77942e-114 7.16491e-114 2.65846e-113 9.03713e-113 2.79662e-112 7.82311e-112 1.96315e-111 4.38408e-111 8.64421e-111 1.4946e-110 2.25671e-110 2.9785e-110 3.46651e-110 3.62305e-110 3.49343e-110 3.2071e-110 2.8797e-110 2.56258e-110 2.26156e-110 1.97792e-110 1.73303e-110 1.57153e-110 1.54466e-110 1.69089e-110 2.02789e-110 2.53838e-110 3.1449e-110 3.71674e-110 4.1292e-110 4.32131e-110 4.30153e-110 4.12048e-110 3.85294e-110 3.58316e-110 3.37172e-110 3.23071e-110 3.14834e-110 3.13904e-110 3.24343e-110 3.46846e-110 3.75172e-110 3.99709e-110 4.13933e-110 4.18098e-110 4.18424e-110 4.22565e-110 4.34911e-110 4.5447e-110 4.74328e-110 4.832e-110 4.71842e-110 4.40503e-110 3.99436e-110 3.60977e-110 3.31097e-110 3.0889e-110 2.92046e-110 2.80049e-110 2.71918e-110 2.63513e-110 2.49701e-110 2.28963e-110 2.04808e-110 1.84363e-110 1.76175e-110 1.86307e-110 2.13735e-110 2.48996e-110 2.78909e-110 2.94899e-110 2.97361e-110 2.92176e-110 2.84923e-110 2.78781e-110 2.74802e-110 2.71438e-110 2.65475e-110 2.55981e-110 2.47274e-110 2.47146e-110 2.61245e-110 2.88358e-110 3.20215e-110 3.46406e-110 3.6059e-110 3.61638e-110 3.50138e-110 3.26932e-110 2.95277e-110 2.62076e-110 2.35779e-110 2.23088e-110 2.26714e-110 2.45704e-110 2.77756e-110 3.21088e-110 3.73754e-110 4.30803e-110 4.82792e-110 5.18592e-110 5.3073e-110 5.18664e-110 4.8883e-110 4.52515e-110 4.20579e-110 3.96611e-110 3.74585e-110 3.44342e-110 3.00489e-110 2.46054e-110 1.88538e-110 1.34598e-110 8.85594e-111 5.29793e-111 2.85185e-111 1.37464e-111 5.9338e-112 2.30134e-112 8.05934e-113 2.563e-113 7.44439e-114 1.98583e-114 4.8903e-115 1.11706e-115 2.37711e-116 4.73123e-117 8.83911e-118 1.55515e-118 2.58438e-119 4.06759e-120 6.07845e-121 8.64392e-122 1.17219e-122 1.51876e-123 1.88348e-124 2.23936e-125 2.55648e-126 2.8063e-127 2.96603e-128 3.02205e-129 2.9718e-130 2.82356e-131 2.59466e-132 2.30826e-133 1.98978e-134 1.66346e-135 1.34975e-136 1.06382e-137 8.15015e-139 6.07361e-140 4.40552e-141 3.11233e-142 2.14274e-143 1.43846e-144 9.42107e-146 6.02289e-147 3.76032e-148 2.29386e-149 1.36781e-150 7.9761e-152 4.55034e-153 2.54073e-154 1.389e-155 7.43766e-157 3.90223e-158 2.00172e-159 0 
0 1.3757e-222 5.24819e-221 1.97742e-219 7.36266e-218 2.70878e-216 9.8462e-215 3.53569e-213 1.25413e-211 4.39366e-210 1.52011e-208 5.19321e-207 1.7517e-205 5.833e-204 1.91725e-202 6.21963e-201 1.9911e-199 6.28932e-198 1.95992e-196 6.02472e-195 1.82656e-193 5.46095e-192 1.6098e-190 4.67818e-189 1.34003e-187 3.78281e-186 1.05221e-184 2.88339e-183 7.7829e-182 2.06889e-180 5.4151e-179 1.3953e-177 3.53864e-176 8.83122e-175 2.16835e-173 5.23687e-172 1.24379e-170 2.90441e-169 6.66652e-168 1.50372e-166 3.33233e-165 7.25323e-164 1.55024e-162 3.25261e-161 6.69733e-160 1.35295e-158 2.68061e-157 5.20741e-156 9.91517e-155 1.84978e-153 3.38006e-152 6.04719e-151 1.05886e-149 1.81387e-148 3.03859e-147 4.97565e-146 7.96048e-145 1.24376e-143 1.8968e-142 2.82211e-141 4.09408e-140 5.78791e-139 7.96912e-138 1.06795e-136 1.39206e-135 1.76372e-134 2.17045e-133 2.59228e-132 3.00244e-131 3.36941e-130 3.66034e-129 3.84556e-128 3.90318e-127 3.82317e-126 3.60965e-125 3.28096e-124 2.86714e-123 2.40538e-122 1.93434e-121 1.48857e-120 1.09424e-119 7.66847e-119 5.1125e-118 3.23502e-117 1.93793e-116 1.09598e-115 5.83364e-115 2.91258e-114 1.35889e-113 5.90002e-113 2.37282e-112 8.79381e-112 2.98598e-111 9.23042e-111 2.57943e-110 6.46675e-110 1.44291e-109 2.84293e-109 4.91252e-109 7.41427e-109 9.78315e-109 1.1385e-108 1.18994e-108 1.14746e-108 1.05347e-108 9.45936e-109 8.41753e-109 7.42875e-109 6.49748e-109 5.69386e-109 5.16428e-109 5.07673e-109 5.55755e-109 6.66462e-109 8.34086e-109 1.03318e-108 1.22089e-108 1.35631e-108 1.41941e-108 1.41294e-108 1.35351e-108 1.26569e-108 1.17714e-108 1.10773e-108 1.06146e-108 1.03449e-108 1.03154e-108 1.06585e-108 1.13967e-108 1.23256e-108 1.31303e-108 1.35973e-108 1.37346e-108 1.37461e-108 1.38827e-108 1.42883e-108 1.49303e-108 1.55817e-108 1.58726e-108 1.55e-108 1.4472e-108 1.31243e-108 1.1861e-108 1.08782e-108 1.01473e-108 9.5931e-109 9.19846e-109 8.93083e-109 8.65425e-109 8.20049e-109 7.51956e-109 6.72654e-109 6.05541e-109 5.78675e-109 6.11939e-109 7.01956e-109 8.17678e-109 9.15883e-109 9.68446e-109 9.76616e-109 9.59655e-109 9.35878e-109 9.15737e-109 9.02685e-109 8.91623e-109 8.72029e-109 8.40871e-109 8.12329e-109 8.11957e-109 8.58267e-109 9.47274e-109 1.05185e-108 1.13785e-108 1.18446e-108 1.18793e-108 1.15017e-108 1.07398e-108 9.70066e-109 8.61068e-109 7.74713e-109 7.3299e-109 7.44822e-109 8.07129e-109 9.12386e-109 1.05473e-108 1.22771e-108 1.41504e-108 1.58572e-108 1.70325e-108 1.74313e-108 1.70358e-108 1.60573e-108 1.48659e-108 1.38175e-108 1.30294e-108 1.23045e-108 1.131e-108 9.86925e-109 8.08131e-109 6.19221e-109 4.42068e-109 2.90889e-109 1.74063e-109 9.37373e-110 4.52104e-110 1.95302e-110 7.58111e-111 2.65748e-111 8.46004e-112 2.45997e-112 6.56964e-113 1.61975e-113 3.7044e-114 7.89281e-115 1.57292e-115 2.94238e-116 5.18356e-117 8.62547e-118 1.35938e-118 2.03413e-119 2.89657e-120 3.93334e-121 5.10327e-122 6.33748e-123 7.54537e-124 8.62588e-125 9.48205e-126 1.00358e-126 1.02398e-127 1.00838e-128 9.5944e-130 8.82916e-131 7.86584e-132 6.79028e-133 5.68485e-134 4.61943e-135 3.64611e-136 2.79742e-137 2.08772e-138 1.51654e-139 1.07295e-140 7.39774e-142 4.97352e-143 3.26218e-144 2.08859e-145 1.30592e-146 7.97815e-148 4.76438e-149 2.7824e-150 1.58972e-151 8.88967e-153 4.86722e-154 2.61016e-155 1.3715e-156 7.04597e-158 0 
0 5.13925e-221 1.9574e-219 7.36311e-218 2.73711e-216 1.00537e-214 3.64853e-213 1.30804e-211 4.63223e-210 1.62022e-208 5.5966e-207 1.90893e-205 6.42861e-204 2.13725e-202 7.01374e-201 2.27166e-199 7.26075e-198 2.28983e-196 7.12445e-195 2.18657e-193 6.61874e-192 1.97572e-190 5.81494e-189 1.68721e-187 4.82533e-186 1.36003e-184 3.7771e-183 1.03343e-181 2.78513e-180 7.39208e-179 1.93181e-177 4.96998e-176 1.2585e-174 3.13594e-173 7.68795e-172 1.8539e-170 4.39639e-169 1.02505e-167 2.34921e-166 5.29088e-165 1.17071e-163 2.54434e-162 5.42984e-161 1.13753e-159 2.33873e-158 4.71743e-157 9.33269e-156 1.81027e-154 3.44171e-153 6.4113e-152 1.16978e-150 2.08973e-149 3.65369e-148 6.24967e-147 1.0454e-145 1.70931e-144 2.73069e-143 4.26023e-142 6.48762e-141 9.6384e-140 1.39623e-138 1.97102e-137 2.70989e-136 3.62633e-135 4.72007e-134 5.97169e-133 7.33831e-132 8.75205e-131 1.01224e-129 1.13435e-128 1.23056e-127 1.29101e-126 1.30852e-125 1.2799e-124 1.20674e-123 1.09534e-122 9.55867e-122 8.00822e-121 6.43119e-120 4.94242e-119 3.62823e-118 2.53927e-117 1.69065e-116 1.06837e-115 6.39168e-115 3.61008e-114 1.9191e-113 9.56941e-113 4.45915e-112 1.9337e-111 7.7675e-111 2.87533e-110 9.75235e-110 3.01145e-109 8.40689e-109 2.10566e-108 4.69432e-108 9.24227e-108 1.59609e-107 2.40788e-107 3.1764e-107 3.69614e-107 3.86324e-107 3.7256e-107 3.42067e-107 3.07153e-107 2.73318e-107 2.41213e-107 2.10989e-107 1.84922e-107 1.67756e-107 1.64936e-107 1.80564e-107 2.16513e-107 2.7092e-107 3.35526e-107 3.96433e-107 4.40382e-107 4.60869e-107 4.58775e-107 4.39491e-107 4.10997e-107 3.82265e-107 3.59746e-107 3.44739e-107 3.36011e-107 3.35083e-107 3.4623e-107 3.70167e-107 4.00277e-107 4.26368e-107 4.41519e-107 4.45995e-107 4.46395e-107 4.50845e-107 4.64016e-107 4.84846e-107 5.0597e-107 5.15397e-107 5.03317e-107 4.69988e-107 4.26268e-107 3.85245e-107 3.53295e-107 3.29516e-107 3.1149e-107 2.98658e-107 2.8995e-107 2.80954e-107 2.66217e-107 2.44116e-107 2.1838e-107 1.96602e-107 1.87888e-107 1.98683e-107 2.27886e-107 2.65428e-107 2.973e-107 3.14379e-107 3.17059e-107 3.11575e-107 3.0387e-107 2.97342e-107 2.9311e-107 2.89515e-107 2.8315e-107 2.73042e-107 2.63793e-107 2.63687e-107 2.78724e-107 3.07606e-107 3.41537e-107 3.69452e-107 3.84593e-107 3.85729e-107 3.73478e-107 3.48751e-107 3.15029e-107 2.79658e-107 2.51626e-107 2.38067e-107 2.41883e-107 2.62092e-107 2.96259e-107 3.42477e-107 3.9864e-107 4.59444e-107 5.14832e-107 5.52973e-107 5.65925e-107 5.53114e-107 5.21392e-107 4.82755e-107 4.48729e-107 4.23117e-107 3.99532e-107 3.67207e-107 3.20417e-107 2.62367e-107 2.01034e-107 1.43521e-107 9.44481e-108 5.653e-108 3.04558e-108 1.4698e-108 6.35403e-109 2.46861e-109 8.66178e-110 2.76031e-110 8.03511e-111 2.14832e-111 5.30299e-112 1.21427e-112 2.59041e-113 5.16881e-114 9.68145e-115 1.70778e-115 2.8455e-116 4.49047e-117 6.72839e-118 9.59402e-119 1.30457e-119 1.69492e-120 2.10772e-121 2.5129e-122 2.87675e-123 3.16669e-124 3.35633e-125 3.42937e-126 3.38188e-127 3.22232e-128 2.96953e-129 2.64931e-130 2.29032e-131 1.92022e-132 1.56259e-133 1.23514e-134 9.49011e-136 7.09276e-137 5.15977e-138 3.65584e-139 2.52432e-140 1.6996e-141 1.11642e-142 7.15837e-144 4.48248e-145 2.7425e-146 1.6402e-147 9.593e-149 5.48913e-150 3.07409e-151 1.68563e-152 9.05316e-154 4.76412e-155 2.45119e-156 0 
0 1.89704e-219 7.21357e-218 2.70911e-216 1.00543e-214 3.68709e-213 1.3359e-211 4.78165e-210 1.69062e-208 5.90382e-207 2.03604e-205 6.93355e-204 2.33126e-202 7.73812e-201 2.53535e-199 8.19864e-198 2.61632e-196 8.23806e-195 2.55909e-193 7.84173e-192 2.36996e-190 7.06329e-189 2.07561e-187 6.01298e-186 1.71699e-184 4.83183e-183 1.33982e-181 3.66012e-180 9.84882e-179 2.60995e-177 6.81018e-176 1.74936e-174 4.42291e-173 1.10041e-171 2.6936e-170 6.48549e-169 1.53564e-167 3.57499e-166 8.18074e-165 1.83966e-163 4.06446e-162 8.82005e-161 1.87943e-159 3.93141e-158 8.07071e-157 1.62549e-155 3.21097e-154 6.21907e-153 1.18061e-151 2.196e-150 4.0008e-149 7.13655e-148 1.24592e-146 2.12801e-145 3.55435e-144 5.8031e-143 9.25713e-142 1.44212e-140 2.19291e-139 3.25319e-138 4.70576e-137 6.63341e-136 9.10692e-135 1.21692e-133 1.58168e-132 1.99824e-131 2.45203e-130 2.92026e-129 3.37272e-128 3.77424e-127 4.08858e-126 4.2834e-125 4.33542e-124 4.23471e-123 3.98711e-122 3.61403e-121 3.14951e-120 2.63503e-119 2.11324e-118 1.62184e-117 1.18899e-116 8.31019e-116 5.5256e-115 3.4872e-114 2.08353e-113 1.17528e-112 6.23972e-112 3.10746e-111 1.44621e-110 6.26382e-110 2.51313e-109 9.29215e-109 3.14812e-108 9.71072e-108 2.70814e-107 6.77666e-107 1.5095e-106 2.96975e-106 5.12557e-106 7.72917e-106 1.01935e-105 1.18603e-105 1.23969e-105 1.19561e-105 1.09782e-105 9.85782e-106 8.77179e-106 7.74145e-106 6.77192e-106 5.93617e-106 5.38619e-106 5.29645e-106 5.79846e-106 6.95226e-106 8.69773e-106 1.07698e-105 1.27232e-105 1.41329e-105 1.47904e-105 1.47234e-105 1.4105e-105 1.31912e-105 1.22697e-105 1.15476e-105 1.10665e-105 1.07873e-105 1.07586e-105 1.11165e-105 1.18837e-105 1.28484e-105 1.36844e-105 1.41703e-105 1.43145e-105 1.43282e-105 1.44715e-105 1.48942e-105 1.55622e-105 1.62392e-105 1.65412e-105 1.61541e-105 1.5086e-105 1.36842e-105 1.23677e-105 1.1341e-105 1.05764e-105 9.99687e-106 9.58444e-106 9.30436e-106 9.01515e-106 8.54214e-106 7.83312e-106 7.00754e-106 6.30906e-106 6.02967e-106 6.37592e-106 7.31234e-106 8.51617e-106 9.53853e-106 1.00871e-105 1.0174e-105 9.9987e-106 9.75192e-106 9.54282e-106 9.40716e-106 9.29168e-106 9.08734e-106 8.76323e-106 8.46699e-106 8.46405e-106 8.94659e-106 9.87295e-106 1.09612e-105 1.18567e-105 1.23429e-105 1.23797e-105 1.19868e-105 1.11935e-105 1.0112e-105 8.97743e-106 8.07803e-106 7.64248e-106 7.76416e-106 8.41198e-106 9.50819e-106 1.09915e-105 1.27937e-105 1.47444e-105 1.6521e-105 1.77443e-105 1.81601e-105 1.77499e-105 1.67334e-105 1.5495e-105 1.44036e-105 1.35809e-105 1.28225e-105 1.1784e-105 1.02821e-105 8.41919e-106 6.45099e-106 4.60547e-106 3.03103e-106 1.8146e-106 9.78041e-107 4.72283e-107 2.04323e-107 7.94499e-108 2.79039e-108 8.90152e-109 2.59401e-109 6.94342e-110 1.71595e-110 3.93393e-111 8.40264e-112 1.67874e-112 3.14839e-113 5.56089e-114 9.27764e-115 1.46604e-115 2.1996e-116 3.14063e-117 4.27634e-118 5.56345e-119 6.92793e-120 8.27114e-121 9.48183e-122 1.0452e-122 1.10934e-123 1.13508e-124 1.12094e-125 1.06956e-126 9.87051e-128 8.81867e-129 7.63461e-130 6.41008e-131 5.22375e-132 4.13501e-133 3.18171e-134 2.38141e-135 1.73492e-136 1.23103e-137 8.51258e-139 5.73983e-140 3.77588e-141 2.42461e-142 1.5205e-143 9.31661e-145 5.5802e-146 3.26853e-147 1.87304e-148 1.05053e-149 5.76903e-151 3.10307e-152 1.63541e-153 8.42694e-155 0 
0 6.91845e-218 2.6265e-216 9.84804e-215 3.64899e-213 1.33599e-211 4.83273e-210 1.72702e-208 6.09632e-207 2.12548e-205 7.31838e-204 2.48823e-202 8.35279e-201 2.76812e-199 9.05519e-198 2.92356e-196 9.31479e-195 2.92834e-193 9.08232e-192 2.77868e-190 8.38464e-189 2.49499e-187 7.32029e-186 2.11735e-184 6.03663e-183 1.69614e-181 4.69591e-180 1.28084e-178 3.44121e-177 9.10518e-176 2.37216e-174 6.08411e-173 1.53588e-171 3.8154e-170 9.32505e-169 2.2418e-167 5.30008e-166 1.23199e-164 2.81491e-163 6.32051e-162 1.39431e-160 3.02114e-159 6.42795e-158 1.34258e-156 2.75203e-155 5.53447e-154 1.09164e-152 2.11115e-151 4.00179e-150 7.43251e-149 1.35209e-147 2.40827e-146 4.19821e-145 7.15994e-144 1.19415e-142 1.94681e-141 3.10101e-140 4.82387e-139 7.32459e-138 1.08503e-136 1.56723e-135 2.20604e-134 3.02428e-133 4.03541e-132 5.23751e-131 6.60742e-130 8.0964e-129 9.62877e-128 1.11049e-126 1.24094e-125 1.34241e-124 1.40441e-123 1.41948e-122 1.38458e-121 1.30182e-120 1.17838e-119 1.02551e-118 8.56818e-118 6.86218e-117 5.25937e-116 3.85053e-115 2.68765e-114 1.7847e-113 1.12484e-112 6.71195e-112 3.78119e-111 2.00493e-110 9.97225e-110 4.63535e-109 2.00522e-108 8.03563e-108 2.9677e-107 1.00431e-106 3.09461e-106 8.62157e-106 2.15538e-105 4.79704e-105 9.43071e-105 1.62671e-104 2.45198e-104 3.23293e-104 3.76124e-104 3.9315e-104 3.79203e-104 3.48211e-104 3.12678e-104 2.78226e-104 2.45547e-104 2.1481e-104 1.88329e-104 1.70914e-104 1.68091e-104 1.84029e-104 2.20627e-104 2.75968e-104 3.41647e-104 4.03561e-104 4.48253e-104 4.69103e-104 4.66987e-104 4.47385e-104 4.18423e-104 3.8922e-104 3.66331e-104 3.51091e-104 3.42265e-104 3.41386e-104 3.52746e-104 3.77046e-104 4.0759e-104 4.34067e-104 4.49468e-104 4.54059e-104 4.54517e-104 4.59079e-104 4.72486e-104 4.93656e-104 5.15101e-104 5.24661e-104 5.12401e-104 4.78574e-104 4.34157e-104 3.92398e-104 3.59795e-104 3.35495e-104 3.17083e-104 3.03982e-104 2.9508e-104 2.85891e-104 2.70885e-104 2.48406e-104 2.22232e-104 2.00091e-104 1.91238e-104 2.02214e-104 2.3189e-104 2.7004e-104 3.02452e-104 3.19865e-104 3.22649e-104 3.17113e-104 3.09301e-104 3.02681e-104 2.98384e-104 2.94719e-104 2.88235e-104 2.77964e-104 2.68586e-104 2.68507e-104 2.83812e-104 3.13175e-104 3.47668e-104 3.76064e-104 3.9149e-104 3.92667e-104 3.80213e-104 3.55067e-104 3.20782e-104 2.84818e-104 2.56299e-104 2.42472e-104 2.46305e-104 2.66829e-104 3.01588e-104 3.48634e-104 4.0579e-104 4.67637e-104 5.23952e-104 5.62731e-104 5.75921e-104 5.62941e-104 5.30753e-104 4.91524e-104 4.56927e-104 4.30809e-104 4.06709e-104 3.73734e-104 3.26086e-104 2.67005e-104 2.04583e-104 1.46056e-104 9.61334e-105 5.75665e-105 3.10404e-105 1.49978e-105 6.49328e-106 2.52705e-106 8.88378e-107 2.8369e-107 8.27605e-108 2.21778e-108 5.48732e-109 1.25952e-109 2.69357e-110 5.38819e-111 1.01181e-111 1.78944e-112 2.98935e-113 4.72996e-114 7.10613e-115 1.01599e-115 1.38526e-116 1.80465e-117 2.25033e-118 2.69032e-119 3.08838e-120 3.40912e-121 3.62337e-122 3.71261e-123 3.67151e-124 3.50818e-125 3.24214e-126 2.90076e-127 2.51486e-128 2.11452e-129 1.72565e-130 1.36796e-131 1.0541e-132 7.90102e-134 5.76447e-135 4.09619e-136 2.83664e-137 1.91547e-138 1.26192e-139 8.1151e-141 5.09657e-142 3.12744e-143 1.87596e-144 1.10045e-145 6.31552e-147 3.54745e-148 1.951e-149 1.05098e-150 5.54728e-152 2.86268e-153 0 
0 2.49258e-216 9.44745e-215 3.53658e-213 1.30829e-211 4.78227e-210 1.72713e-208 6.16214e-207 2.17173e-205 7.55962e-204 2.59874e-202 8.82157e-201 2.95662e-199 9.78271e-198 3.19508e-196 1.02993e-194 3.2763e-193 1.02836e-191 3.18447e-190 9.7274e-189 2.93063e-187 8.70695e-186 2.55062e-184 7.36602e-183 2.0968e-181 5.88232e-180 1.62605e-178 4.4283e-177 1.1879e-175 3.13826e-174 8.16349e-173 2.09055e-171 5.26933e-170 1.30699e-168 3.18948e-167 7.65603e-166 1.80729e-164 4.1946e-163 9.56954e-162 2.14547e-160 4.72577e-159 1.02242e-157 2.17209e-156 4.52997e-155 9.27162e-154 1.86179e-152 3.66677e-151 7.08074e-150 1.3402e-148 2.48546e-147 4.51476e-146 8.02958e-145 1.3977e-143 2.38023e-142 3.96399e-141 6.453e-140 1.02638e-138 1.59429e-137 2.41727e-136 3.57565e-135 5.15727e-134 7.24893e-133 9.92336e-132 1.32221e-130 1.71363e-129 2.15877e-128 2.64149e-127 3.13699e-126 3.61281e-125 4.03153e-124 4.35505e-123 4.54981e-122 4.59224e-121 4.47312e-120 4.19994e-119 3.79647e-118 3.29943e-117 2.75294e-116 2.20182e-115 1.68526e-114 1.23217e-113 8.58906e-113 5.69593e-112 3.58526e-111 2.13655e-110 1.20208e-109 6.36581e-109 3.1623e-108 1.4681e-107 6.3432e-107 2.53894e-106 9.36594e-106 3.16605e-105 9.74519e-105 2.71228e-104 6.77434e-104 1.50644e-103 2.95942e-103 5.10175e-103 7.68671e-103 1.01324e-102 1.17871e-102 1.2321e-102 1.18849e-102 1.09143e-102 9.80068e-103 8.72069e-103 7.69647e-103 6.73354e-103 5.90437e-103 5.35947e-103 5.27172e-103 5.77173e-103 6.91888e-103 8.65279e-103 1.071e-102 1.26493e-102 1.40493e-102 1.47028e-102 1.46367e-102 1.40228e-102 1.31157e-102 1.22011e-102 1.14842e-102 1.10071e-102 1.07314e-102 1.07049e-102 1.10611e-102 1.18217e-102 1.27774e-102 1.3606e-102 1.40884e-102 1.42328e-102 1.42479e-102 1.43914e-102 1.48116e-102 1.54746e-102 1.61458e-102 1.64449e-102 1.60612e-102 1.50026e-102 1.36118e-102 1.2303e-102 1.12798e-102 1.05167e-102 9.93861e-103 9.52736e-103 9.24774e-103 8.95924e-103 8.48884e-103 7.78451e-103 6.96453e-103 6.27095e-103 5.9937e-103 6.33751e-103 7.26686e-103 8.46164e-103 9.47708e-103 1.00233e-102 1.01114e-102 9.93867e-103 9.69432e-103 9.48722e-103 9.35272e-103 9.23774e-103 9.03445e-103 8.71279e-103 8.41941e-103 8.41739e-103 8.89703e-103 9.81681e-103 1.08972e-102 1.17869e-102 1.22707e-102 1.23079e-102 1.19178e-102 1.113e-102 1.00561e-102 8.92952e-103 8.03586e-103 7.60209e-103 7.72144e-103 8.36398e-103 9.4531e-103 1.09276e-102 1.27188e-102 1.46565e-102 1.64205e-102 1.76353e-102 1.80487e-102 1.76429e-102 1.66356e-102 1.54077e-102 1.4324e-102 1.35046e-102 1.27478e-102 1.17132e-102 1.02195e-102 8.36778e-103 6.41144e-103 4.57727e-103 3.013e-103 1.80467e-103 9.73497e-104 4.70643e-104 2.03913e-104 7.94265e-105 2.79487e-105 8.93413e-106 2.60917e-106 6.99984e-107 1.73396e-107 3.98478e-108 8.53221e-109 1.70891e-109 3.21313e-110 5.68988e-111 9.51763e-112 1.50793e-112 2.26847e-113 3.24765e-114 4.434e-115 5.78423e-116 7.22256e-117 8.64659e-118 9.93962e-119 1.09871e-119 1.16938e-120 1.19986e-121 1.18824e-122 1.13698e-123 1.05224e-124 9.42782e-126 8.18525e-127 6.89205e-128 5.63263e-129 4.4715e-130 3.45055e-131 2.5901e-132 1.89243e-133 1.3467e-134 9.33957e-136 6.31586e-137 4.16699e-138 2.68362e-139 1.68788e-140 1.03727e-141 6.23114e-143 3.66063e-144 2.10397e-145 1.18356e-146 6.51898e-148 3.51694e-149 1.85908e-150 9.60812e-152 0 
0 8.87055e-215 3.35671e-213 1.25453e-211 4.63343e-210 1.69096e-208 6.09713e-207 2.17188e-205 7.64212e-204 2.65591e-202 9.11559e-201 3.08941e-199 1.0338e-197 3.41515e-196 1.11364e-194 3.58414e-193 1.13834e-191 3.5674e-190 1.10296e-188 3.36387e-187 1.01187e-185 3.00157e-184 8.77911e-183 2.5314e-181 7.19467e-180 2.01525e-178 5.56212e-177 1.51242e-175 4.05085e-174 1.06852e-172 2.77527e-171 7.09614e-170 1.78588e-168 4.42288e-167 1.07768e-165 2.58294e-164 6.08804e-163 1.41085e-161 3.21385e-160 7.19448e-159 1.58233e-157 3.41822e-156 7.25098e-155 1.50995e-153 3.08584e-152 6.18729e-151 1.21677e-149 2.34616e-148 4.43408e-147 8.21105e-146 1.48931e-144 2.64487e-143 4.59712e-142 7.81729e-141 1.29997e-139 2.11314e-138 3.35617e-137 5.20563e-136 7.88135e-135 1.16413e-133 1.67664e-132 2.35327e-131 3.21687e-130 4.28011e-129 5.53926e-128 6.96823e-127 8.51432e-126 1.00972e-124 1.16123e-123 1.294e-122 1.39589e-121 1.45628e-120 1.46782e-119 1.42777e-118 1.33872e-117 1.20846e-116 1.04881e-115 8.73907e-115 6.9801e-114 5.33536e-113 3.89572e-112 2.71197e-111 1.7961e-110 1.12906e-109 6.71968e-109 3.77583e-108 1.99701e-107 9.90802e-107 4.59415e-106 1.98259e-105 7.92618e-105 2.92055e-104 9.86163e-104 3.03222e-103 8.4308e-103 2.10377e-102 4.67432e-102 9.17615e-102 1.58095e-101 2.38099e-101 3.13777e-101 3.64988e-101 3.81533e-101 3.68058e-101 3.38021e-101 3.03538e-101 2.70086e-101 2.38368e-101 2.0856e-101 1.82907e-101 1.6606e-101 1.63365e-101 1.78865e-101 2.14393e-101 2.68071e-101 3.31741e-101 3.91757e-101 4.35095e-101 4.5533e-101 4.53292e-101 4.34293e-101 4.06221e-101 3.77919e-101 3.55734e-101 3.40976e-101 3.32468e-101 3.31677e-101 3.42715e-101 3.66239e-101 3.95784e-101 4.21405e-101 4.36333e-101 4.4082e-101 4.41313e-101 4.45771e-101 4.58784e-101 4.79298e-101 5.00057e-101 5.09302e-101 4.9744e-101 4.64703e-101 4.21675e-101 3.81143e-101 3.49419e-101 3.2574e-101 3.07805e-101 2.95049e-101 2.8637e-101 2.7742e-101 2.6285e-101 2.41045e-101 2.15661e-101 1.94193e-101 1.85614e-101 1.96255e-101 2.25012e-101 2.61984e-101 2.93419e-101 3.10349e-101 3.13107e-101 3.07779e-101 3.00227e-101 2.93825e-101 2.89666e-101 2.86102e-101 2.79804e-101 2.69851e-101 2.60781e-101 2.60732e-101 2.75585e-101 3.04053e-101 3.37491e-101 3.65037e-101 3.80025e-101 3.81189e-101 3.69116e-101 3.44732e-101 3.11492e-101 2.76622e-101 2.48953e-101 2.35507e-101 2.39179e-101 2.59055e-101 2.92774e-101 3.38437e-101 3.93902e-101 4.53887e-101 5.08482e-101 5.46079e-101 5.58886e-101 5.46347e-101 5.15204e-101 4.77226e-101 4.43684e-101 4.18288e-101 3.94806e-101 3.6273e-101 3.1646e-101 2.59118e-101 1.98535e-101 1.41739e-101 9.33077e-102 5.59007e-102 3.01671e-102 1.4593e-102 6.32725e-103 2.46663e-103 8.68781e-104 2.77999e-104 8.12757e-105 2.18291e-105 5.41367e-106 1.2456e-106 2.67035e-107 5.35508e-108 1.00815e-108 1.78755e-109 2.99397e-110 4.74973e-111 7.15476e-112 1.02568e-112 1.40223e-113 1.83171e-114 2.29031e-115 2.74563e-116 3.16056e-117 3.49845e-118 3.72866e-119 3.83117e-120 3.79939e-121 3.64058e-122 3.37401e-123 3.0273e-124 2.63204e-125 2.21935e-126 1.81639e-127 1.44402e-128 1.11592e-129 8.38853e-131 6.13786e-132 4.37418e-133 3.03796e-134 2.05741e-135 1.35939e-136 8.76752e-138 5.52249e-139 3.39878e-140 2.04474e-141 1.203e-142 6.92457e-144 3.90112e-145 2.1519e-146 1.16266e-147 6.1551e-149 3.18582e-150 0 