# vtk DataFile Version 3.0
Gray-Scott Simulation Output
ASCII
DATASET STRUCTURED_POINTS
DIMENSIONS 256 256 1
SPACING 1.0 1.0 1.0
ORIGIN 0 0 0
POINT_DATA 65536
SCALARS u double
LOOKUP_TABLE default
0 0 0 0 0 0 0 0 0 0 0 0 0 0 0 0 0 0 0 0 0 0 0 0 0 0 0 0 0 0 0 0 0 0 0 0 0 0 0 0 0 0 0 0 0 0 0 0 0 0 0 0 0 0 0 0 0 0 0 0 0 0 0 0 0 0 0 0 0 0 0 0 0 0 0 0 0 0 0 0 0 0 0 0 0 0 0 0 0 0 0 0 0 0 0 0 0 0 0 0 0 0 0 0 0 0 0 0 0 0 0 0 0 0 0 0 0 0 0 0 0 0 0 0 0 0 0 0 0 0 0 0 0 0 0 0 0 0 0 0 0 0 0 0 0 0 0 0 0 0 0 0 0 0 0 0 0 0 0 0 0 0 0 0 0 0 0 0 0 0 0 0 0 0 0 0 0 0 0 0 0 0 0 0 0 0 0 0 0 0 0 0 0 0 0 0 0 0 0 0 0 0 0 0 0 0 0 0 0 0 0 0 0 0 0 0 0 0 0 0 0 0 0 0 0 0 0 0 0 0 0 0 0 0 0 0 0 0 0 0 0 0 0 0 0 0 0 0 0 0 0 0 0 0 0 0 
0 1.24986e-90 5.96599e-90 2.70123e-89 1.20936e-88 5.36366e-88 2.35656e-87 1.0256e-86 4.42108e-86 1.88752e-85 7.98052e-85 3.34129e-84 1.38517e-83 5.68544e-83 2.31023e-82 9.29271e-82 3.69985e-81 1.45795e-80 5.68561e-80 2.19406e-79 8.37749e-79 3.1647e-78 1.18267e-77 4.3718e-77 1.59838e-76 5.77937e-76 2.0664e-75 7.30525e-75 2.55327e-74 8.82168e-74 3.01266e-73 1.01682e-72 3.39146e-72 1.11769e-71 3.63915e-71 1.17049e-70 3.71855e-70 1.16671e-69 3.61475e-69 1.10577e-68 3.33939e-68 9.95466e-68 2.92876e-67 8.50313e-67 2.43586e-66 6.88399e-66 1.91903e-65 5.27613e-65 1.43045e-64 3.82377e-64 1.00764e-63 2.61723e-63 6.69946e-63 1.68977e-62 4.19889e-62 1.02776e-61 2.47757e-61 5.88119e-61 1.37448e-60 3.16205e-60 7.15952e-60 1.59518e-59 3.49678e-59 7.54028e-59 1.59915e-58 3.33501e-58 6.8381e-58 1.37825e-57 2.73023e-57 5.31464e-57 1.01643e-56 1.90955e-56 3.52346e-56 6.38433e-56 1.13579e-55 1.9836e-55 3.40028e-55 5.72024e-55 9.44266e-55 1.52932e-54 2.4298e-54 3.78672e-54 5.78808e-54 8.67652e-54 1.27546e-53 1.83853e-53 2.59863e-53 3.60149e-53 4.89428e-53 6.52203e-53 8.52304e-53 1.09238e-52 1.37335e-52 1.69399e-52 2.05056e-52 2.43674e-52 2.84379e-52 3.26101e-52 3.67653e-52 4.07825e-52 4.4549e-52 4.79714e-52 5.09842e-52 5.35557e-52 5.56906e-52 5.74276e-52 5.88342e-52 5.99969e-52 6.10114e-52 6.19703e-52 6.29535e-52 6.40201e-52 6.52034e-52 6.65104e-52 6.79236e-52 6.94073e-52 7.09141e-52 7.23935e-52 7.37996e-52 7.50972e-52 7.62656e-52 7.73e-52 7.82104e-52 7.9018e-52 7.97508e-52 8.0438e-52 8.11049e-52 8.17691e-52 8.24369e-52 8.31026e-52 8.3748e-52 8.43445e-52 8.48551e-52 8.5238e-52 8.545e-52 8.54507e-52 8.52055e-52 8.4689e-52 8.38876e-52 8.28008e-52 8.14421e-52 7.9839e-52 7.80313e-52 7.60699e-52 7.40136e-52 7.19265e-52 6.98747e-52 6.79224e-52 6.6129e-52 6.4546e-52 6.32137e-52 6.2159e-52 6.13943e-52 6.09169e-52 6.07097e-52 6.0743e-52 6.09781e-52 6.13709e-52 6.18763e-52 6.24524e-52 6.30636e-52 6.36833e-52 6.42939e-52 6.48869e-52 6.54603e-52 6.60162e-52 6.65578e-52 6.70869e-52 6.76026e-52 6.81008e-52 6.85757e-52 6.90218e-52 6.94367e-52 6.98243e-52 7.01963e-52 7.05735e-52 7.0984e-52 7.14607e-52 7.20365e-52 7.27383e-52 7.35814e-52 7.45641e-52 7.56638e-52 7.68351e-52 7.80112e-52 7.91065e-52 8.00226e-52 8.06546e-52 8.08995e-52 8.06629e-52 7.98667e-52 7.84541e-52 7.63941e-52 7.36832e-52 7.03464e-52 6.64358e-52 6.20278e-52 5.72196e-52 5.21238e-52 4.68622e-52 4.15603e-52 3.63396e-52 3.13122e-52 2.65752e-52 2.22064e-52 1.82614e-52 1.47735e-52 1.17536e-52 9.19317e-53 7.06711e-53 5.33823e-53 3.96131e-53 2.8873e-53 2.06678e-53 1.45276e-53 1.00266e-53 6.79435e-54 4.52021e-54 2.95244e-54 1.89328e-54 1.19199e-54 7.36833e-55 4.47228e-55 2.66552e-55 1.56013e-55 8.9683e-56 5.06372e-56 2.8086e-56 1.53045e-56 8.19434e-57 4.31152e-57 2.2296e-57 1.13335e-57 5.66377e-58 2.78301e-58 1.3448e-58 6.39142e-59 2.98815e-59 1.37449e-59 6.22127e-60 2.77131e-60 1.21514e-60 5.24535e-61 2.22942e-61 9.33148e-62 3.84694e-62 1.56226e-62 6.25076e-63 2.46444e-63 9.57578e-64 3.66739e-64 1.38438e-64 5.14469e-65 1.86244e-65 5.98949e-66 0 
0 5.96745e-90 2.84849e-89 1.28973e-88 5.77436e-88 2.56104e-87 1.12524e-86 4.89731e-86 2.11115e-85 9.01356e-85 3.81113e-84 1.59571e-83 6.61553e-83 2.71547e-82 1.10347e-81 4.43886e-81 1.76742e-80 6.96508e-80 2.71638e-79 1.04832e-78 4.00307e-78 1.51233e-77 5.65216e-77 2.08954e-76 7.64035e-76 2.76284e-75 9.8795e-75 3.49304e-74 1.221e-73 4.2191e-73 1.44103e-72 4.86434e-72 1.62264e-71 5.34832e-71 1.74164e-70 5.60261e-70 1.78017e-69 5.58624e-69 1.73104e-68 5.29624e-68 1.59973e-67 4.7696e-67 1.40352e-66 4.07565e-66 1.16776e-65 3.30088e-65 9.20366e-65 2.53095e-64 6.86333e-64 1.83505e-63 4.83679e-63 1.25659e-62 3.21731e-62 8.11678e-62 2.01741e-61 4.93921e-61 1.19097e-60 2.82779e-60 6.61044e-60 1.52115e-59 3.44509e-59 7.67784e-59 1.6835e-58 3.63117e-58 7.70304e-58 1.60689e-57 3.29563e-57 6.64425e-57 1.31653e-56 2.56341e-56 4.9038e-56 9.2151e-56 1.70077e-55 3.08247e-55 5.48514e-55 9.58176e-55 1.64287e-54 2.76439e-54 4.56427e-54 7.3937e-54 1.17495e-53 1.83143e-53 2.79985e-53 4.19773e-53 6.17159e-53 8.8973e-53 1.25772e-52 1.74327e-52 2.36924e-52 3.15742e-52 4.12637e-52 5.28885e-52 6.64936e-52 8.20182e-52 9.92811e-52 1.17975e-51 1.37676e-51 1.57866e-51 1.77968e-51 1.97395e-51 2.15604e-51 2.3214e-51 2.46688e-51 2.59094e-51 2.69383e-51 2.77742e-51 2.84498e-51 2.90072e-51 2.94926e-51 2.9951e-51 3.04211e-51 3.09315e-51 3.14984e-51 3.21251e-51 3.28034e-51 3.35158e-51 3.42396e-51 3.49505e-51 3.56263e-51 3.62498e-51 3.68113e-51 3.73083e-51 3.77456e-51 3.81335e-51 3.84854e-51 3.88153e-51 3.91357e-51 3.94547e-51 3.97756e-51 4.00957e-51 4.04061e-51 4.0693e-51 4.09388e-51 4.11233e-51 4.12257e-51 4.12265e-51 4.11091e-51 4.08612e-51 4.04763e-51 3.99542e-51 3.93012e-51 3.85306e-51 3.76616e-51 3.67186e-51 3.57299e-51 3.47264e-51 3.37398e-51 3.2801e-51 3.19388e-51 3.11777e-51 3.05372e-51 3.00304e-51 2.96631e-51 2.9434e-51 2.93348e-51 2.93514e-51 2.9465e-51 2.96543e-51 2.98977e-51 3.01749e-51 3.04688e-51 3.07666e-51 3.106e-51 3.13448e-51 3.162e-51 3.18869e-51 3.21469e-51 3.24009e-51 3.26485e-51 3.28879e-51 3.3116e-51 3.33303e-51 3.35296e-51 3.37157e-51 3.38943e-51 3.40753e-51 3.42723e-51 3.4501e-51 3.47774e-51 3.51144e-51 3.55196e-51 3.5992e-51 3.65207e-51 3.70842e-51 3.76502e-51 3.81775e-51 3.86188e-51 3.89237e-51 3.90423e-51 3.89293e-51 3.8547e-51 3.78679e-51 3.68768e-51 3.55721e-51 3.39655e-51 3.20819e-51 2.9958e-51 2.76404e-51 2.51833e-51 2.26454e-51 2.00871e-51 1.75671e-51 1.51396e-51 1.28515e-51 1.07406e-51 8.83399e-52 7.14777e-52 5.68746e-52 4.44902e-52 3.42048e-52 2.58393e-52 1.91758e-52 1.39775e-52 1.00057e-52 7.03322e-53 4.85416e-53 3.28927e-53 2.18825e-53 1.42921e-53 9.16433e-54 5.76928e-54 3.56595e-54 2.16415e-54 1.28969e-54 7.54756e-55 4.33801e-55 2.44896e-55 1.35809e-55 7.39914e-56 3.96092e-56 2.08367e-56 1.07731e-56 5.47505e-57 2.73551e-57 1.34386e-57 6.49236e-58 3.08495e-58 1.44197e-58 6.6313e-59 3.00082e-59 1.33644e-59 5.85859e-60 2.52838e-60 1.07439e-60 4.49599e-61 1.85308e-61 7.5238e-62 3.00969e-62 1.18636e-62 4.60871e-63 1.7647e-63 6.66012e-64 2.47456e-64 8.9565e-65 2.87992e-65 0 
0 2.70262e-89 1.29008e-88 5.84132e-88 2.61532e-87 1.15997e-86 5.09671e-86 2.21828e-85 9.56301e-85 4.08309e-84 1.7265e-83 7.22918e-83 2.99724e-82 1.23035e-81 4.99999e-81 2.01145e-80 8.00953e-80 3.15665e-79 1.23119e-78 4.75187e-78 1.81469e-77 6.85643e-77 2.56276e-76 9.47522e-76 3.46496e-75 1.25311e-74 4.48148e-74 1.58469e-73 5.54001e-73 1.91459e-72 6.54017e-72 2.20802e-71 7.3666e-71 2.42846e-70 7.90936e-70 2.54476e-69 8.08714e-69 2.53822e-68 7.86679e-68 2.40736e-67 7.27285e-67 2.16885e-66 6.38347e-66 1.85408e-65 5.3135e-65 1.50229e-64 4.18972e-64 1.15242e-63 3.12584e-63 8.35964e-63 2.20397e-62 5.72738e-62 1.46679e-61 3.70147e-61 9.20247e-61 2.25365e-60 5.43563e-60 1.29098e-59 3.01876e-59 6.94858e-59 1.57417e-58 3.50928e-58 7.69698e-58 1.66067e-57 3.52394e-57 7.35329e-57 1.50857e-56 3.0423e-56 6.02998e-56 1.17444e-55 2.24736e-55 4.22439e-55 7.79889e-55 1.41386e-54 2.5166e-54 4.3973e-54 7.54148e-54 1.26929e-53 2.09622e-53 3.39646e-53 5.39855e-53 8.41663e-53 1.28696e-52 1.92985e-52 2.83776e-52 4.09168e-52 5.78472e-52 8.01889e-52 1.08993e-51 1.45264e-51 1.89854e-51 2.43349e-51 3.05955e-51 3.77389e-51 4.56814e-51 5.4281e-51 6.33422e-51 7.26259e-51 8.18666e-51 9.07941e-51 9.91574e-51 1.06748e-50 1.13421e-50 1.19106e-50 1.23815e-50 1.27634e-50 1.30714e-50 1.3325e-50 1.35454e-50 1.37533e-50 1.39665e-50 1.41982e-50 1.44559e-50 1.47412e-50 1.50502e-50 1.5375e-50 1.57051e-50 1.60294e-50 1.63378e-50 1.66223e-50 1.68785e-50 1.71052e-50 1.73046e-50 1.74815e-50 1.76419e-50 1.77924e-50 1.79384e-50 1.8084e-50 1.82304e-50 1.83765e-50 1.85182e-50 1.86493e-50 1.87617e-50 1.88461e-50 1.88931e-50 1.88937e-50 1.88404e-50 1.87275e-50 1.8552e-50 1.83138e-50 1.80158e-50 1.76641e-50 1.72674e-50 1.68369e-50 1.63855e-50 1.59273e-50 1.54768e-50 1.50482e-50 1.46545e-50 1.43071e-50 1.40147e-50 1.37834e-50 1.36159e-50 1.35116e-50 1.34666e-50 1.34744e-50 1.35265e-50 1.36132e-50 1.37245e-50 1.38512e-50 1.39854e-50 1.41213e-50 1.42551e-50 1.43849e-50 1.45104e-50 1.4632e-50 1.47505e-50 1.48663e-50 1.49792e-50 1.50883e-50 1.51924e-50 1.52901e-50 1.5381e-50 1.54659e-50 1.55473e-50 1.56297e-50 1.57194e-50 1.58236e-50 1.59496e-50 1.61033e-50 1.62881e-50 1.65037e-50 1.67452e-50 1.70026e-50 1.72613e-50 1.75025e-50 1.77044e-50 1.78441e-50 1.78987e-50 1.78476e-50 1.76733e-50 1.73633e-50 1.69106e-50 1.63143e-50 1.55797e-50 1.47181e-50 1.37462e-50 1.26852e-50 1.15598e-50 1.0397e-50 9.22431e-51 8.06878e-51 6.95524e-51 5.90528e-51 4.93626e-51 4.06073e-51 3.28617e-51 2.61519e-51 2.04601e-51 1.57319e-51 1.18855e-51 8.82112e-52 6.43021e-52 4.60318e-52 3.23574e-52 2.23322e-52 1.51324e-52 1.00667e-52 6.57444e-53 4.21531e-53 2.65344e-53 1.63989e-53 9.95107e-54 5.92934e-54 3.46944e-54 1.99375e-54 1.12534e-54 6.23945e-55 3.39869e-55 1.81901e-55 9.56694e-56 4.94522e-56 2.51266e-56 1.25511e-56 6.16445e-57 2.97739e-57 1.4144e-57 6.60957e-58 3.03882e-58 1.37479e-58 6.12117e-59 2.68268e-59 1.15746e-59 4.91722e-60 2.05718e-60 8.4768e-61 3.44087e-61 1.37609e-61 5.42294e-62 2.10618e-62 8.06278e-63 3.04226e-63 1.13009e-63 4.08942e-64 1.31471e-64 0 
0 1.21032e-88 5.77751e-88 2.61604e-87 1.1713e-86 5.19523e-86 2.28276e-85 9.93582e-85 4.28351e-84 1.829e-83 7.73415e-83 3.23861e-82 1.34282e-81 5.51251e-81 2.24037e-80 9.01343e-80 3.5894e-79 1.41474e-78 5.51839e-78 2.13005e-77 8.13523e-77 3.07403e-76 1.14912e-75 4.24906e-75 1.554e-74 5.62079e-74 2.0104e-73 7.10987e-73 2.48593e-72 8.59241e-72 2.93557e-71 9.91229e-71 3.30756e-70 1.09054e-69 3.55245e-69 1.14317e-68 3.63361e-68 1.14066e-67 3.53596e-67 1.08228e-66 3.27033e-66 9.7546e-66 2.87165e-65 8.34258e-65 2.39141e-64 6.76285e-64 1.88654e-63 5.1904e-63 1.40821e-62 3.76704e-62 9.93424e-62 2.58227e-61 6.61506e-61 1.66979e-60 4.15255e-60 1.01724e-59 2.45422e-59 5.83062e-59 1.3638e-58 3.14017e-58 7.11608e-58 1.58687e-57 3.48161e-57 7.51412e-57 1.595e-56 3.32928e-56 6.83234e-56 1.3783e-55 2.7327e-55 5.32404e-55 1.0191e-54 1.91619e-54 3.53864e-54 6.41708e-54 1.14254e-53 1.99693e-53 3.42571e-53 5.76724e-53 9.52694e-53 1.544e-52 2.4547e-52 3.82784e-52 5.85422e-52 8.78025e-52 1.29132e-51 1.8622e-51 2.6331e-51 3.65049e-51 4.96228e-51 6.61415e-51 8.64493e-51 1.10813e-50 1.39325e-50 1.71855e-50 2.08019e-50 2.4717e-50 2.88413e-50 3.30659e-50 3.72696e-50 4.13292e-50 4.51303e-50 4.85782e-50 5.16067e-50 5.41842e-50 5.63159e-50 5.80418e-50 5.94308e-50 6.05713e-50 6.15605e-50 6.24926e-50 6.34489e-50 6.44894e-50 6.56481e-50 6.69324e-50 6.83249e-50 6.97897e-50 7.12794e-50 7.27433e-50 7.41352e-50 7.54197e-50 7.6576e-50 7.75992e-50 7.84991e-50 7.92969e-50 8.00205e-50 8.0699e-50 8.13578e-50 8.20145e-50 8.26756e-50 8.33353e-50 8.39758e-50 8.45685e-50 8.50768e-50 8.5459e-50 8.56723e-50 8.56763e-50 8.54365e-50 8.49277e-50 8.4136e-50 8.3061e-50 8.17158e-50 8.01276e-50 7.8336e-50 7.63915e-50 7.43524e-50 7.22826e-50 7.02475e-50 6.83112e-50 6.65329e-50 6.49636e-50 6.36434e-50 6.25993e-50 6.18436e-50 6.13733e-50 6.11713e-50 6.1208e-50 6.14447e-50 6.18374e-50 6.23409e-50 6.29136e-50 6.352e-50 6.41336e-50 6.47373e-50 6.53228e-50 6.58885e-50 6.64367e-50 6.69708e-50 6.7493e-50 6.80022e-50 6.84947e-50 6.89643e-50 6.94054e-50 6.98156e-50 7.01983e-50 7.05653e-50 7.09367e-50 7.13409e-50 7.18105e-50 7.23784e-50 7.30717e-50 7.3906e-50 7.48798e-50 7.5971e-50 7.71347e-50 7.83046e-50 7.93958e-50 8.03102e-50 8.09436e-50 8.1193e-50 8.09641e-50 8.01786e-50 7.8779e-50 7.67334e-50 7.40372e-50 7.07141e-50 6.68145e-50 6.24138e-50 5.76077e-50 5.2508e-50 4.72363e-50 4.19177e-50 3.66747e-50 3.16201e-50 2.68523e-50 2.24505e-50 1.8472e-50 1.49511e-50 1.19003e-50 9.31153e-51 7.16054e-51 5.41034e-51 4.01574e-51 2.92747e-51 2.09576e-51 1.4732e-51 1.01676e-51 6.88943e-52 4.5829e-52 2.99285e-52 1.91875e-52 1.20768e-52 7.46287e-53 4.52796e-53 2.69757e-53 1.57817e-53 9.06748e-54 5.11701e-54 2.83656e-54 1.54477e-54 8.26592e-55 4.34639e-55 2.24615e-55 1.14099e-55 5.69797e-56 2.79783e-56 1.35099e-56 6.41615e-57 2.99751e-57 1.37777e-57 6.23149e-58 2.77379e-58 1.21533e-58 5.24222e-59 2.22644e-59 9.31214e-60 3.83616e-60 1.55675e-60 6.22425e-61 2.45224e-61 9.52172e-62 3.64417e-62 1.37469e-62 5.10526e-63 1.84701e-63 5.93688e-64 0 
0 5.36941e-88 2.56316e-87 1.16062e-86 5.19669e-86 2.30504e-85 1.01286e-84 4.40871e-84 1.90076e-83 8.1164e-83 3.4323e-82 1.43733e-81 5.95993e-81 2.44682e-80 9.94499e-80 4.00136e-79 1.59358e-78 6.28153e-78 2.45042e-77 9.45935e-77 3.61313e-76 1.36543e-75 5.10472e-75 1.88778e-74 6.90501e-74 2.49784e-73 8.93525e-73 3.16043e-72 1.10519e-71 3.82056e-71 1.30549e-70 4.40883e-70 1.4714e-69 4.85221e-69 1.5809e-68 5.08823e-68 1.61762e-67 5.07903e-67 1.57479e-66 4.82108e-66 1.45711e-65 4.34716e-65 1.28005e-64 3.71962e-64 1.06649e-63 3.01675e-63 8.41757e-63 2.31651e-62 6.28659e-62 1.68216e-61 4.43732e-61 1.15375e-60 2.95643e-60 7.46486e-60 1.85697e-59 4.55034e-59 1.09816e-58 2.60978e-58 6.10629e-58 1.40642e-57 3.18818e-57 7.11188e-57 1.56086e-56 3.3698e-56 7.15531e-56 1.49403e-55 3.06706e-55 6.18924e-55 1.22752e-54 2.39231e-54 4.58069e-54 8.61572e-54 1.59157e-53 2.88708e-53 5.14187e-53 8.98961e-53 1.54259e-52 2.59769e-52 4.29228e-52 6.95812e-52 1.10648e-51 1.72583e-51 2.64001e-51 3.96031e-51 5.82551e-51 8.40226e-51 1.18823e-50 1.64754e-50 2.23982e-50 2.98567e-50 3.90263e-50 5.00271e-50 6.29002e-50 7.75863e-50 9.39112e-50 1.11581e-49 1.30192e-49 1.4925e-49 1.68207e-49 1.86506e-49 2.03632e-49 2.19155e-49 2.32779e-49 2.4436e-49 2.53925e-49 2.61653e-49 2.67859e-49 2.7294e-49 2.77338e-49 2.81478e-49 2.85726e-49 2.90354e-49 2.95516e-49 3.01245e-49 3.07464e-49 3.14011e-49 3.20673e-49 3.27222e-49 3.33449e-49 3.39197e-49 3.4437e-49 3.48946e-49 3.5297e-49 3.56537e-49 3.59771e-49 3.62804e-49 3.65749e-49 3.68686e-49 3.71644e-49 3.74597e-49 3.77466e-49 3.80122e-49 3.82401e-49 3.84116e-49 3.85077e-49 3.851e-49 3.84032e-49 3.81759e-49 3.7822e-49 3.73411e-49 3.67392e-49 3.60284e-49 3.52264e-49 3.43558e-49 3.34429e-49 3.25162e-49 3.16049e-49 3.0738e-49 2.99418e-49 2.92393e-49 2.86484e-49 2.81812e-49 2.78433e-49 2.76333e-49 2.75434e-49 2.75605e-49 2.7667e-49 2.78433e-49 2.80692e-49 2.83257e-49 2.85973e-49 2.88718e-49 2.91418e-49 2.94035e-49 2.96563e-49 2.99012e-49 3.01398e-49 3.03732e-49 3.06009e-49 3.08211e-49 3.10311e-49 3.12284e-49 3.14118e-49 3.15829e-49 3.17469e-49 3.19128e-49 3.20932e-49 3.2303e-49 3.25567e-49 3.28667e-49 3.324e-49 3.36759e-49 3.41646e-49 3.46861e-49 3.52105e-49 3.57e-49 3.61106e-49 3.63954e-49 3.65083e-49 3.64069e-49 3.60561e-49 3.54299e-49 3.45138e-49 3.33056e-49 3.18156e-49 3.00664e-49 2.80915e-49 2.59337e-49 2.3643e-49 2.1274e-49 1.8883e-49 1.65248e-49 1.42505e-49 1.21044e-49 1.01222e-49 8.33005e-50 6.74351e-50 5.36831e-50 4.2011e-50 3.23103e-50 2.44154e-50 1.81234e-50 1.32127e-50 9.45922e-51 6.64939e-51 4.58917e-51 3.10946e-51 2.06833e-51 1.35062e-51 8.65819e-52 5.44895e-52 3.36675e-52 2.04241e-52 1.21659e-52 7.11622e-53 4.0879e-53 2.30644e-53 1.27827e-53 6.95985e-54 3.72327e-54 1.9573e-54 1.01125e-54 5.13559e-55 2.56399e-55 1.25864e-55 6.07593e-56 2.88481e-56 1.34736e-56 6.19126e-57 2.79945e-57 1.24576e-57 5.45672e-58 2.35306e-58 9.99101e-59 4.1776e-59 1.7205e-59 6.98008e-60 2.79005e-60 1.09894e-60 4.26591e-61 1.63223e-61 6.15569e-62 2.28552e-62 8.26673e-63 2.65669e-63 0 
0 2.35976e-87 1.12649e-86 5.101e-86 2.28405e-85 1.01315e-84 4.45209e-84 1.93796e-83 8.35569e-83 3.56814e-82 1.509e-81 6.31956e-81 2.6206e-80 1.07595e-79 4.3735e-79 1.75982e-78 7.00925e-78 2.76313e-77 1.078e-76 4.16182e-76 1.58984e-75 6.00876e-75 2.24667e-74 8.30945e-74 3.03977e-73 1.09976e-72 3.9346e-72 1.39189e-71 4.86809e-71 1.68313e-70 5.75221e-70 1.94294e-69 6.48546e-69 2.1391e-68 6.97068e-68 2.244e-67 7.13543e-67 2.24085e-66 6.94939e-66 2.12797e-65 6.43295e-65 1.91966e-64 5.65394e-64 1.64334e-63 4.71298e-63 1.33349e-62 3.7218e-62 1.02451e-61 2.78112e-61 7.44377e-61 1.96414e-60 5.10846e-60 1.30941e-59 3.30723e-59 8.22965e-59 2.01724e-58 4.8699e-58 1.1577e-57 2.70965e-57 6.24303e-57 1.41569e-56 3.15904e-56 6.93557e-56 1.49786e-55 3.18158e-55 6.64544e-55 1.36469e-54 2.75485e-54 5.46558e-54 1.06555e-53 2.04094e-53 3.84003e-53 7.09593e-53 1.2876e-52 2.29393e-52 4.01174e-52 6.88607e-52 1.15993e-51 1.91713e-51 3.10863e-51 4.94461e-51 7.71414e-51 1.1803e-50 1.77093e-50 2.60548e-50 3.75858e-50 5.31609e-50 7.37201e-50 1.00232e-49 1.33622e-49 1.74671e-49 2.23917e-49 2.81542e-49 3.47277e-49 4.20337e-49 4.99404e-49 5.82661e-49 6.67893e-49 7.52644e-49 8.34417e-49 9.10901e-49 9.80181e-49 1.04092e-48 1.0925e-48 1.13503e-48 1.16932e-48 1.19679e-48 1.21922e-48 1.23858e-48 1.25679e-48 1.27548e-48 1.29587e-48 1.31866e-48 1.34398e-48 1.37151e-48 1.40051e-48 1.43004e-48 1.45907e-48 1.48669e-48 1.51217e-48 1.53511e-48 1.5554e-48 1.57323e-48 1.58903e-48 1.60336e-48 1.6168e-48 1.62985e-48 1.64287e-48 1.65598e-48 1.66909e-48 1.68182e-48 1.69362e-48 1.70375e-48 1.71138e-48 1.71567e-48 1.7158e-48 1.71108e-48 1.70102e-48 1.68534e-48 1.66402e-48 1.63732e-48 1.60579e-48 1.57021e-48 1.53158e-48 1.49107e-48 1.44994e-48 1.4095e-48 1.37102e-48 1.33569e-48 1.30452e-48 1.27831e-48 1.25759e-48 1.24261e-48 1.23331e-48 1.22935e-48 1.23014e-48 1.2349e-48 1.24274e-48 1.25278e-48 1.26418e-48 1.27623e-48 1.2884e-48 1.30037e-48 1.31196e-48 1.32315e-48 1.334e-48 1.34457e-48 1.3549e-48 1.36499e-48 1.37475e-48 1.38406e-48 1.39281e-48 1.40094e-48 1.40852e-48 1.41577e-48 1.42312e-48 1.4311e-48 1.44039e-48 1.45163e-48 1.46536e-48 1.48192e-48 1.50126e-48 1.52295e-48 1.54612e-48 1.56943e-48 1.59119e-48 1.60947e-48 1.62217e-48 1.62724e-48 1.6228e-48 1.60727e-48 1.5795e-48 1.53885e-48 1.48519e-48 1.41898e-48 1.34121e-48 1.25336e-48 1.15733e-48 1.05535e-48 9.49822e-49 8.43266e-49 7.3813e-49 6.36688e-49 5.40924e-49 4.52441e-49 3.72408e-49 3.01534e-49 2.40082e-49 1.8791e-49 1.44538e-49 1.09232e-49 8.10884e-50 5.912e-50 4.23266e-50 2.97539e-50 2.05348e-50 1.39132e-50 9.25416e-51 6.04249e-51 3.87317e-51 2.43726e-51 1.5057e-51 9.13285e-52 5.43917e-52 3.18095e-52 1.82693e-52 1.03055e-52 5.71025e-53 3.10834e-53 1.66245e-53 8.73715e-54 4.51292e-54 2.29125e-54 1.14361e-54 5.61233e-55 2.70852e-55 1.28562e-55 6.00278e-56 2.75754e-56 1.24649e-56 5.54528e-57 2.42826e-57 1.04682e-57 4.44345e-58 1.85743e-58 7.64745e-59 3.1017e-59 1.23945e-59 4.88057e-60 1.89404e-60 7.24509e-61 2.73164e-61 1.01396e-61 3.6666e-62 1.17811e-62 0 
0 1.02729e-86 4.90417e-86 2.22079e-85 9.94431e-85 4.41124e-84 1.93852e-83 8.43864e-83 3.63859e-82 1.55388e-81 6.57191e-81 2.75245e-80 1.14147e-79 4.68696e-79 1.90529e-78 7.66721e-78 3.05408e-77 1.20407e-76 4.69802e-76 1.81395e-75 6.93015e-75 2.61955e-74 9.79568e-74 3.62346e-73 1.32571e-72 4.79698e-72 1.71646e-71 6.073e-71 2.12435e-70 7.34612e-70 2.51101e-69 8.483e-69 2.83212e-68 9.34292e-68 3.04518e-67 9.80502e-67 3.11844e-66 9.79543e-66 3.03846e-65 9.30618e-65 2.81397e-64 8.39923e-64 2.47442e-63 7.19386e-63 2.06368e-62 5.84058e-62 1.63056e-61 4.48977e-61 1.21913e-60 3.26402e-60 8.61515e-60 2.24137e-59 5.74693e-59 1.45198e-58 3.61426e-58 8.86212e-58 2.14015e-57 5.08942e-57 1.19161e-56 2.74641e-56 6.23002e-56 1.39069e-55 3.05428e-55 6.5986e-55 1.4021e-54 2.92965e-54 6.01841e-54 1.21534e-53 2.41208e-53 4.70415e-53 9.01344e-53 1.69646e-52 3.13594e-52 5.69226e-52 1.01443e-51 1.77466e-51 3.04711e-51 5.13427e-51 8.48834e-51 1.37677e-50 2.19046e-50 3.41821e-50 5.23121e-50 7.85066e-50 1.15525e-49 1.66682e-49 2.3579e-49 3.27023e-49 4.44682e-49 5.92867e-49 7.75052e-49 9.93613e-49 1.24934e-48 1.54104e-48 1.86519e-48 2.21593e-48 2.58517e-48 2.96305e-48 3.33864e-48 3.70087e-48 4.03946e-48 4.34593e-48 4.61436e-48 4.842e-48 5.02938e-48 5.18016e-48 5.30057e-48 5.39862e-48 5.48305e-48 5.56235e-48 5.64381e-48 5.73282e-48 5.83246e-48 5.94339e-48 6.0641e-48 6.19141e-48 6.3211e-48 6.44868e-48 6.57005e-48 6.68206e-48 6.78285e-48 6.87198e-48 6.95031e-48 7.01969e-48 7.08259e-48 7.14157e-48 7.19889e-48 7.25608e-48 7.31373e-48 7.37135e-48 7.42738e-48 7.47931e-48 7.52394e-48 7.55762e-48 7.57658e-48 7.57727e-48 7.55666e-48 7.51253e-48 7.44365e-48 7.34997e-48 7.23262e-48 7.09398e-48 6.93751e-48 6.76762e-48 6.58943e-48 6.40853e-48 6.23065e-48 6.06142e-48 5.90602e-48 5.76894e-48 5.65369e-48 5.56264e-48 5.49685e-48 5.45607e-48 5.43878e-48 5.44236e-48 5.4634e-48 5.49802e-48 5.54225e-48 5.59241e-48 5.6454e-48 5.69892e-48 5.75148e-48 5.80238e-48 5.85149e-48 5.89908e-48 5.94545e-48 5.99082e-48 6.03511e-48 6.07798e-48 6.11888e-48 6.15731e-48 6.19302e-48 6.2263e-48 6.25816e-48 6.29036e-48 6.32538e-48 6.36611e-48 6.41543e-48 6.47578e-48 6.54853e-48 6.63359e-48 6.72906e-48 6.83104e-48 6.93373e-48 7.02969e-48 7.11032e-48 7.16647e-48 7.18907e-48 7.16981e-48 7.10175e-48 6.97977e-48 6.80095e-48 6.56477e-48 6.27319e-48 5.93051e-48 5.54322e-48 5.11966e-48 4.66959e-48 4.20368e-48 3.733e-48 3.26838e-48 2.81987e-48 2.39628e-48 2.00475e-48 1.65046e-48 1.33661e-48 1.06439e-48 8.33213e-49 6.40978e-49 4.84458e-49 3.59667e-49 2.62242e-49 1.87756e-49 1.31986e-49 9.10894e-50 6.17144e-50 4.10459e-50 2.67986e-50 1.71758e-50 1.08068e-50 6.67532e-51 4.04825e-51 2.41055e-51 1.40947e-51 8.09334e-52 4.56436e-52 2.52849e-52 1.37603e-52 7.35758e-53 3.86582e-53 1.99623e-53 1.01322e-53 5.05574e-54 2.4804e-54 1.19669e-54 5.67849e-55 2.65059e-55 1.21725e-55 5.50066e-56 2.44634e-56 1.07092e-56 4.61529e-57 1.95847e-57 8.18428e-58 3.36864e-58 1.36587e-58 5.45647e-59 2.14797e-59 8.33344e-60 3.18681e-60 1.2012e-60 4.45754e-61 1.6115e-61 5.17681e-62 0 
0 4.42966e-86 2.11473e-85 9.57663e-85 4.28843e-84 1.90241e-83 8.36055e-83 3.63966e-82 1.56945e-81 6.70283e-81 2.83506e-80 1.18746e-79 4.92492e-79 2.02237e-78 8.22183e-78 3.3089e-77 1.31817e-76 5.19741e-76 2.02812e-75 7.83165e-75 2.99242e-74 1.13125e-73 4.23082e-73 1.56521e-72 5.72742e-72 2.07273e-71 7.4178e-71 2.6249e-70 9.1835e-70 3.17625e-69 1.08588e-68 3.66913e-68 1.2252e-67 4.04265e-67 1.31791e-66 4.24436e-66 1.35019e-65 4.24209e-65 1.31617e-64 4.03211e-64 1.21951e-63 3.64097e-63 1.07291e-62 3.1201e-62 8.95299e-62 2.53456e-61 7.07797e-61 1.9495e-60 5.29518e-60 1.41813e-59 3.74422e-59 9.74431e-59 2.49928e-58 6.31662e-58 1.57285e-57 3.85794e-57 9.31995e-57 2.21712e-56 5.19288e-56 1.19728e-55 2.71693e-55 6.06706e-55 1.33296e-54 2.88086e-54 6.12367e-54 1.28e-53 2.63049e-53 5.31394e-53 1.05504e-52 2.05835e-52 3.94536e-52 7.42842e-52 1.37364e-51 2.49426e-51 4.44661e-51 7.78153e-51 1.33653e-50 2.25271e-50 3.72545e-50 6.04424e-50 9.61913e-50 1.50145e-49 2.29836e-49 3.45e-49 5.07784e-49 7.32775e-49 1.03676e-48 1.43811e-48 1.95575e-48 2.60773e-48 3.40931e-48 4.37092e-48 5.496e-48 6.77917e-48 8.20492e-48 9.74728e-48 1.13705e-47 1.30313e-47 1.46813e-47 1.62717e-47 1.77574e-47 1.91011e-47 2.02767e-47 2.12724e-47 2.20904e-47 2.27471e-47 2.32701e-47 2.36946e-47 2.40591e-47 2.4401e-47 2.47526e-47 2.51373e-47 2.5569e-47 2.60503e-47 2.65749e-47 2.71287e-47 2.76932e-47 2.82487e-47 2.87773e-47 2.92652e-47 2.97041e-47 3.00922e-47 3.04331e-47 3.0735e-47 3.10086e-47 3.12652e-47 3.15146e-47 3.17636e-47 3.20147e-47 3.22658e-47 3.25101e-47 3.27368e-47 3.29316e-47 3.30789e-47 3.3162e-47 3.31656e-47 3.30763e-47 3.28845e-47 3.25847e-47 3.21768e-47 3.16656e-47 3.10615e-47 3.03796e-47 2.96391e-47 2.88624e-47 2.80737e-47 2.72983e-47 2.65606e-47 2.58833e-47 2.52858e-47 2.47837e-47 2.43871e-47 2.41007e-47 2.39235e-47 2.38486e-47 2.38649e-47 2.39571e-47 2.41085e-47 2.43016e-47 2.45204e-47 2.47514e-47 2.49845e-47 2.52133e-47 2.54347e-47 2.56483e-47 2.58552e-47 2.60569e-47 2.62542e-47 2.64469e-47 2.66335e-47 2.68116e-47 2.69789e-47 2.71344e-47 2.72792e-47 2.74177e-47 2.75577e-47 2.77099e-47 2.78869e-47 2.81014e-47 2.83641e-47 2.8681e-47 2.90518e-47 2.94682e-47 2.99132e-47 3.03616e-47 3.07809e-47 3.11336e-47 3.13798e-47 3.14797e-47 3.13971e-47 3.11015e-47 3.05705e-47 2.97912e-47 2.87612e-47 2.74886e-47 2.59921e-47 2.43e-47 2.24484e-47 2.04799e-47 1.84412e-47 1.63805e-47 1.43453e-47 1.23798e-47 1.05227e-47 8.80535e-48 7.25078e-48 5.87312e-48 4.6778e-48 3.66237e-48 2.81777e-48 2.12992e-48 1.58141e-48 1.15311e-48 8.25609e-49 5.80379e-49 4.00537e-49 2.71357e-49 1.80466e-49 1.17814e-49 7.55011e-50 4.7498e-50 2.93348e-50 1.77871e-50 1.05894e-50 6.19041e-51 3.55382e-51 2.00376e-51 1.10974e-51 6.03772e-52 3.22747e-52 1.69531e-52 8.75167e-53 4.44075e-53 2.21517e-53 1.08646e-53 5.24008e-54 2.48572e-54 1.15991e-54 5.32507e-55 2.40559e-55 1.06951e-55 4.68043e-56 2.01647e-56 8.5541e-57 3.57356e-57 1.47042e-57 5.96021e-58 2.3803e-58 9.36737e-59 3.63316e-59 1.38896e-59 5.2339e-60 1.9417e-60 7.01782e-61 2.25394e-61 0 
0 1.89174e-85 9.03154e-85 4.09013e-84 1.83165e-83 8.12586e-83 3.57128e-82 1.5548e-81 6.70483e-81 2.86371e-80 1.21133e-79 5.07406e-79 2.1046e-78 8.64309e-78 3.51412e-77 1.41441e-76 5.63514e-76 2.22212e-75 8.67211e-75 3.34915e-74 1.27985e-73 4.83897e-73 1.80999e-72 6.69707e-72 2.45096e-71 8.87128e-71 3.17533e-70 1.12383e-69 3.93251e-69 1.36036e-68 4.6516e-68 1.57206e-67 5.25049e-67 1.73279e-66 5.65013e-66 1.82004e-65 5.79114e-65 1.81991e-64 5.64789e-64 1.73068e-63 5.23578e-63 1.5636e-62 4.60883e-62 1.34065e-61 3.84803e-61 1.08968e-60 3.04394e-60 8.38655e-60 2.27865e-59 6.10451e-59 1.61227e-58 4.19733e-58 1.07692e-57 2.72272e-57 6.78203e-57 1.66411e-56 4.02158e-56 9.57043e-56 2.24239e-55 5.17206e-55 1.17411e-54 2.62286e-54 5.76477e-54 1.24639e-53 2.6504e-53 5.54215e-53 1.1394e-52 2.30262e-52 4.57344e-52 8.92604e-52 1.71156e-51 3.22378e-51 5.96352e-51 1.08325e-50 1.93184e-50 3.38188e-50 5.81057e-50 9.79685e-50 1.62068e-49 2.63021e-49 4.18705e-49 6.53732e-49 1.00096e-48 1.50286e-48 2.21244e-48 3.19335e-48 4.51884e-48 6.26909e-48 8.5267e-48 1.13703e-47 1.48665e-47 1.90605e-47 2.39672e-47 2.95626e-47 3.57789e-47 4.25021e-47 4.9576e-47 5.68105e-47 6.39952e-47 7.09168e-47 7.73781e-47 8.32163e-47 8.8319e-47 9.26339e-47 9.61725e-47 9.90061e-47 1.01256e-46 1.03075e-46 1.04633e-46 1.06093e-46 1.07595e-46 1.09242e-46 1.11094e-46 1.13163e-46 1.15422e-46 1.17809e-46 1.20244e-46 1.22641e-46 1.24922e-46 1.27027e-46 1.28922e-46 1.30596e-46 1.32066e-46 1.33367e-46 1.34547e-46 1.35653e-46 1.36729e-46 1.37803e-46 1.38887e-46 1.39971e-46 1.41027e-46 1.42007e-46 1.42851e-46 1.43489e-46 1.4385e-46 1.43868e-46 1.43485e-46 1.42658e-46 1.41366e-46 1.39605e-46 1.37399e-46 1.3479e-46 1.31845e-46 1.28646e-46 1.25291e-46 1.21884e-46 1.18535e-46 1.15348e-46 1.12422e-46 1.09842e-46 1.07673e-46 1.05962e-46 1.04727e-46 1.03963e-46 1.03642e-46 1.03715e-46 1.04116e-46 1.04772e-46 1.05608e-46 1.06554e-46 1.07552e-46 1.08558e-46 1.09544e-46 1.10499e-46 1.11419e-46 1.1231e-46 1.13179e-46 1.1403e-46 1.14861e-46 1.15666e-46 1.16434e-46 1.17156e-46 1.17826e-46 1.18451e-46 1.19048e-46 1.1965e-46 1.20306e-46 1.21068e-46 1.21993e-46 1.23126e-46 1.24494e-46 1.26096e-46 1.27895e-46 1.2982e-46 1.31761e-46 1.33577e-46 1.35107e-46 1.36177e-46 1.36615e-46 1.36265e-46 1.34993e-46 1.32703e-46 1.29338e-46 1.24886e-46 1.19383e-46 1.12907e-46 1.05581e-46 9.75593e-47 8.90268e-47 8.01851e-47 7.12436e-47 6.24083e-47 5.38715e-47 4.58014e-47 3.83354e-47 3.15743e-47 2.55802e-47 2.03777e-47 1.59567e-47 1.22785e-47 9.28219e-48 6.89233e-48 5.02591e-48 3.59859e-48 2.52971e-48 1.74578e-48 1.18268e-48 7.86484e-49 5.13393e-49 3.28968e-49 2.06925e-49 1.27776e-49 7.74624e-50 4.61073e-50 2.69479e-50 1.54668e-50 8.71849e-51 4.82728e-51 2.62565e-51 1.40315e-51 7.36821e-52 3.80254e-52 1.92888e-52 9.61878e-53 4.71613e-53 2.2739e-53 1.07831e-53 5.03006e-54 2.3085e-54 1.04251e-54 4.63342e-55 2.02702e-55 8.73013e-56 3.7022e-56 1.54613e-56 6.3598e-57 2.57707e-57 1.02886e-57 4.0477e-58 1.56943e-58 5.9981e-59 2.25954e-59 8.38011e-60 3.02796e-60 9.72285e-61 0 