# vtk DataFile Version 3.0
Gray-Scott Simulation Output
ASCII
DATASET STRUCTURED_POINTS
DIMENSIONS 256 256 1
SPACING 1.0 1.0 1.0
ORIGIN 0 0 0
POINT_DATA 65536
SCALARS u double
LOOKUP_TABLE default
0 0 0 0 0 0 0 0 0 0 0 0 0 0 0 0 0 0 0 0 0 0 0 0 0 0 0 0 0 0 0 0 0 0 0 0 0 0 0 0 0 0 0 0 0 0 0 0 0 0 0 0 0 0 0 0 0 0 0 0 0 0 0 0 0 0 0 0 0 0 0 0 0 0 0 0 0 0 0 0 0 0 0 0 0 0 0 0 0 0 0 0 0 0 0 0 0 0 0 0 0 0 0 0 0 0 0 0 0 0 0 0 0 0 0 0 0 0 0 0 0 0 0 0 0 0 0 0 0 0 0 0 0 0 0 0 0 0 0 0 0 0 0 0 0 0 0 0 0 0 0 0 0 0 0 0 0 0 0 0 0 0 0 0 0 0 0 0 0 0 0 0 0 0 0 0 0 0 0 0 0 0 0 0 0 0 0 0 0 0 0 0 0 0 0 0 0 0 0 0 0 0 0 0 0 0 0 0 0 0 0 0 0 0 0 0 0 0 0 0 0 0 0 0 0 0 0 0 0 0 0 0 0 0 0 0 0 0 0 0 0 0 0 0 0 0 0 0 0 0 0 0 0 0 0 0 
0 4.24981e-103 2.558e-102 1.48398e-101 8.51903e-101 4.84254e-100 2.72551e-99 1.51871e-98 8.37751e-98 4.57435e-97 2.47217e-96 1.32227e-95 6.9986e-95 3.66531e-94 1.89922e-93 9.7355e-93 4.93648e-92 2.47574e-91 1.22794e-90 6.02258e-90 2.92062e-89 1.40025e-88 6.63622e-88 3.10865e-87 1.43915e-86 6.58372e-86 2.97585e-85 1.32884e-84 5.86132e-84 2.55344e-83 1.09851e-82 4.66623e-82 1.95685e-81 8.10049e-81 3.30953e-80 1.33431e-79 5.3078e-79 2.08293e-78 8.06245e-78 3.07766e-77 1.15842e-76 4.2986e-76 1.57228e-75 5.66759e-75 2.01305e-74 7.04396e-74 2.42776e-73 8.24023e-73 2.75379e-72 9.0593e-72 2.93321e-71 9.3451e-71 2.92906e-70 9.02984e-70 2.73744e-69 8.1588e-69 2.39014e-68 6.88075e-68 1.94608e-67 5.40621e-67 1.47477e-66 3.94958e-66 1.03815e-65 2.67754e-65 6.77438e-65 1.68091e-64 4.08926e-64 9.75107e-64 2.27849e-63 5.21566e-63 1.16928e-62 2.56656e-62 5.51428e-62 1.15933e-61 2.38443e-61 4.79622e-61 9.43264e-61 1.81329e-60 3.40632e-60 6.25137e-60 1.12054e-59 1.96125e-59 3.35118e-59 5.58888e-59 9.09554e-59 1.44421e-58 2.237e-58 3.37969e-58 4.97992e-58 7.15607e-58 1.00282e-57 1.37052e-57 1.8268e-57 2.37523e-57 3.01317e-57 3.73058e-57 4.50963e-57 5.32532e-57 6.14725e-57 6.94247e-57 7.67895e-57 8.32932e-57 8.87424e-57 9.3048e-57 9.62361e-57 9.84435e-57 9.98983e-57 1.00888e-56 1.01723e-56 1.02692e-56 1.04032e-56 1.05897e-56 1.08343e-56 1.11333e-56 1.14745e-56 1.18396e-56 1.2208e-56 1.25593e-56 1.28765e-56 1.31487e-56 1.33713e-56 1.35468e-56 1.36833e-56 1.37926e-56 1.38883e-56 1.3983e-56 1.40873e-56 1.42074e-56 1.43456e-56 1.44995e-56 1.46628e-56 1.48261e-56 1.49779e-56 1.51053e-56 1.51957e-56 1.52371e-56 1.52192e-56 1.51344e-56 1.49783e-56 1.47504e-56 1.4454e-56 1.40962e-56 1.36874e-56 1.32408e-56 1.27714e-56 1.2295e-56 1.1828e-56 1.1386e-56 1.09835e-56 1.06334e-56 1.03459e-56 1.01283e-56 9.98401e-57 9.91202e-57 9.90705e-57 9.95976e-57 1.00577e-56 1.01867e-56 1.03326e-56 1.04826e-56 1.06271e-56 1.07603e-56 1.08801e-56 1.09884e-56 1.1089e-56 1.11872e-56 1.12873e-56 1.13921e-56 1.15017e-56 1.16133e-56 1.17217e-56 1.1821e-56 1.19055e-56 1.19719e-56 1.20204e-56 1.20559e-56 1.2088e-56 1.21296e-56 1.21956e-56 1.23004e-56 1.2455e-56 1.2665e-56 1.29285e-56 1.32355e-56 1.35682e-56 1.39024e-56 1.42091e-56 1.4458e-56 1.46196e-56 1.46681e-56 1.4583e-56 1.43508e-56 1.39657e-56 1.34291e-56 1.275e-56 1.19437e-56 1.10313e-56 1.0038e-56 8.99249e-57 7.92476e-57 6.86486e-57 5.84099e-57 4.87787e-57 3.99542e-57 3.20776e-57 2.52287e-57 1.94275e-57 1.46409e-57 1.07939e-57 7.78232e-58 5.48583e-58 3.77997e-58 2.54553e-58 1.6752e-58 1.07727e-58 6.76929e-59 4.15649e-59 2.49399e-59 1.46244e-59 8.38147e-60 4.69542e-60 2.5716e-60 1.37713e-60 7.21214e-61 3.69449e-61 1.85154e-61 9.08007e-62 4.35831e-62 2.04795e-62 9.423e-63 4.24651e-63 1.87478e-63 8.11054e-64 3.43901e-64 1.42958e-64 5.82746e-65 2.32998e-65 9.13966e-66 3.51819e-66 1.3293e-66 4.93111e-67 1.79633e-67 6.42755e-68 2.25956e-68 7.80585e-69 2.65052e-69 8.84809e-70 2.9045e-70 9.37756e-71 2.97847e-71 9.30833e-72 2.86284e-72 8.66297e-73 2.56615e-73 6.95933e-74 0 
0 2.55857e-102 1.53987e-101 8.93233e-101 5.12723e-100 2.91421e-99 1.64003e-98 9.13771e-98 5.04008e-97 2.75177e-96 1.48704e-95 7.95289e-95 4.20901e-94 2.20416e-93 1.14202e-92 5.85361e-92 2.96791e-91 1.48836e-90 7.3816e-90 3.62016e-89 1.75547e-88 8.41584e-88 3.98832e-87 1.86818e-86 8.64833e-86 3.95619e-85 1.78813e-84 7.9844e-84 3.52169e-83 1.53415e-82 6.59982e-82 2.80341e-81 1.17562e-80 4.86648e-80 1.98822e-79 8.01586e-79 3.18865e-78 1.25132e-77 4.84352e-77 1.84892e-76 6.95936e-76 2.58248e-75 9.44604e-75 3.40509e-74 1.20948e-73 4.23229e-73 1.45875e-72 4.95147e-72 1.6548e-71 5.44418e-71 1.76281e-70 5.6166e-70 1.76054e-69 5.42786e-69 1.64561e-68 4.90503e-68 1.43706e-67 4.13739e-67 1.17028e-66 3.25136e-66 8.87036e-66 2.37581e-65 6.24548e-65 1.61098e-64 4.07638e-64 1.01158e-63 2.46124e-63 5.86968e-63 1.37171e-62 3.14037e-62 7.04118e-62 1.54574e-61 3.32146e-61 6.98399e-61 1.43661e-60 2.89008e-60 5.6846e-60 1.09292e-59 2.05335e-59 3.76883e-59 6.75631e-59 1.18268e-58 2.02107e-58 3.37097e-58 5.48661e-58 8.71262e-58 1.34966e-57 2.03925e-57 3.00504e-57 4.3185e-57 6.05217e-57 8.27173e-57 1.10261e-56 1.43369e-56 1.81882e-56 2.25193e-56 2.72226e-56 3.21472e-56 3.71095e-56 4.19105e-56 4.63569e-56 5.02835e-56 5.35734e-56 5.61729e-56 5.80975e-56 5.94299e-56 6.03074e-56 6.09036e-56 6.14049e-56 6.19866e-56 6.27905e-56 6.39096e-56 6.53789e-56 6.71751e-56 6.9225e-56 7.14199e-56 7.36343e-56 7.57458e-56 7.76532e-56 7.92893e-56 8.06278e-56 8.16831e-56 8.25036e-56 8.31608e-56 8.37356e-56 8.4305e-56 8.49311e-56 8.56529e-56 8.64831e-56 8.74077e-56 8.83889e-56 8.93702e-56 9.0282e-56 9.10483e-56 9.15918e-56 9.18407e-56 9.17336e-56 9.12246e-56 9.02874e-56 8.89183e-56 8.71372e-56 8.49868e-56 8.253e-56 7.98457e-56 7.70238e-56 7.41603e-56 7.13524e-56 6.86946e-56 6.62744e-56 6.41689e-56 6.24403e-56 6.11321e-56 6.02645e-56 5.98322e-56 5.98032e-56 6.01212e-56 6.07114e-56 6.14885e-56 6.23668e-56 6.32699e-56 6.41395e-56 6.49404e-56 6.56611e-56 6.63116e-56 6.69163e-56 6.75057e-56 6.81071e-56 6.87368e-56 6.93952e-56 7.00657e-56 7.0718e-56 7.13151e-56 7.18233e-56 7.22222e-56 7.25137e-56 7.27273e-56 7.29195e-56 7.3169e-56 7.35652e-56 7.41941e-56 7.51225e-56 7.63835e-56 7.79662e-56 7.98106e-56 8.18098e-56 8.38173e-56 8.56603e-56 8.71557e-56 8.81265e-56 8.84168e-56 8.79041e-56 8.65069e-56 8.4189e-56 8.09599e-56 7.68724e-56 7.20186e-56 6.65244e-56 6.05422e-56 5.42436e-56 4.78097e-56 4.14213e-56 3.52484e-56 2.94405e-56 2.41177e-56 1.93656e-56 1.52327e-56 1.17313e-56 8.84179e-57 6.51914e-57 4.7006e-57 3.3137e-57 2.2834e-57 1.53776e-57 1.01202e-57 6.50806e-58 4.08949e-58 2.51101e-58 1.50663e-58 8.83435e-59 5.06289e-59 2.83616e-59 1.55322e-59 8.31714e-60 4.35543e-60 2.23093e-60 1.11796e-60 5.48207e-61 2.63107e-61 1.2362e-61 5.68744e-62 2.5628e-62 1.13133e-62 4.89375e-63 2.07482e-63 8.624e-64 3.51507e-64 1.40527e-64 5.51182e-65 2.12149e-65 8.01498e-66 2.97291e-66 1.08288e-66 3.87439e-67 1.3619e-67 4.70439e-68 1.59727e-68 5.33168e-69 1.75007e-69 5.64992e-70 1.79439e-70 5.6075e-71 1.72452e-71 5.21814e-72 1.54565e-72 4.19159e-73 0 
0 1.48466e-101 8.93446e-101 5.18205e-100 2.97422e-99 1.69031e-98 9.51157e-98 5.299e-97 2.92248e-96 1.59546e-95 8.62094e-95 4.61019e-94 2.4397e-93 1.27751e-92 6.61848e-92 3.39215e-91 1.71977e-90 8.62376e-90 4.2767e-89 2.09729e-88 1.01694e-87 4.87501e-87 2.31017e-86 1.08206e-85 5.0089e-85 2.29123e-84 1.03555e-83 4.62381e-83 2.03936e-82 8.88377e-82 3.82166e-81 1.62329e-80 6.80723e-80 2.81781e-79 1.15122e-78 4.64133e-78 1.84629e-77 7.24538e-77 2.80453e-76 1.07059e-75 4.02978e-75 1.49541e-74 5.46996e-74 1.97187e-73 7.00426e-73 2.45109e-72 8.44862e-72 2.86787e-71 9.58511e-71 3.15363e-70 1.0212e-69 3.25395e-69 1.02004e-68 3.14511e-68 9.53609e-68 2.84266e-67 8.32914e-67 2.39825e-66 6.7843e-66 1.88507e-65 5.14342e-65 1.37776e-64 3.62227e-64 9.3446e-64 2.36483e-63 5.86927e-63 1.42822e-62 3.40656e-62 7.96207e-62 1.82308e-61 4.08821e-61 8.97607e-61 1.92905e-60 4.05678e-60 8.34602e-60 1.67925e-59 3.30345e-59 6.35214e-59 1.19359e-58 2.19108e-58 3.92844e-58 6.87758e-58 1.17545e-57 1.96078e-57 3.19175e-57 5.06898e-57 7.85307e-57 1.18667e-56 1.74882e-56 2.5134e-56 3.52266e-56 4.81486e-56 6.41851e-56 8.34617e-56 1.05886e-55 1.31104e-55 1.5849e-55 1.87164e-55 2.16058e-55 2.44013e-55 2.69903e-55 2.92766e-55 3.11922e-55 3.27057e-55 3.38262e-55 3.46016e-55 3.51119e-55 3.5458e-55 3.57483e-55 3.60845e-55 3.65494e-55 3.71969e-55 3.80475e-55 3.90878e-55 4.02754e-55 4.15473e-55 4.28306e-55 4.40544e-55 4.516e-55 4.61083e-55 4.68842e-55 4.74959e-55 4.79715e-55 4.83523e-55 4.86853e-55 4.90151e-55 4.93778e-55 4.97958e-55 5.02767e-55 5.08122e-55 5.13806e-55 5.1949e-55 5.24774e-55 5.29214e-55 5.32365e-55 5.3381e-55 5.33193e-55 5.30248e-55 5.24821e-55 5.16892e-55 5.06575e-55 4.94116e-55 4.79881e-55 4.64325e-55 4.4797e-55 4.31373e-55 4.15097e-55 3.99689e-55 3.85658e-55 3.7345e-55 3.63429e-55 3.55845e-55 3.50818e-55 3.48315e-55 3.48152e-55 3.50003e-55 3.53432e-55 3.57945e-55 3.63044e-55 3.68286e-55 3.73331e-55 3.77976e-55 3.82154e-55 3.85922e-55 3.89424e-55 3.92837e-55 3.96319e-55 3.99966e-55 4.03781e-55 4.07666e-55 4.11447e-55 4.14908e-55 4.17855e-55 4.20168e-55 4.21858e-55 4.23094e-55 4.24206e-55 4.25648e-55 4.27939e-55 4.31578e-55 4.36951e-55 4.44252e-55 4.53417e-55 4.641e-55 4.7568e-55 4.87309e-55 4.97986e-55 5.06648e-55 5.1227e-55 5.13948e-55 5.10969e-55 5.02862e-55 4.89413e-55 4.70675e-55 4.46953e-55 4.18779e-55 3.86879e-55 3.52137e-55 3.15548e-55 2.78163e-55 2.41032e-55 2.05143e-55 1.71367e-55 1.40405e-55 1.12755e-55 8.87031e-56 6.83218e-56 5.14991e-56 3.79743e-56 2.73834e-56 1.93053e-56 1.33036e-56 8.95966e-57 5.89659e-57 3.79201e-57 2.38279e-57 1.46304e-57 8.77814e-58 5.14701e-58 2.94956e-58 1.6522e-58 9.04761e-59 4.84442e-59 2.53666e-59 1.2992e-59 6.50991e-60 3.19188e-60 1.53175e-60 7.1961e-61 3.31035e-61 1.4915e-61 6.58331e-62 2.84739e-62 1.20707e-62 5.01661e-63 2.04448e-63 8.1726e-64 3.20512e-64 1.2335e-64 4.65966e-65 1.72817e-65 6.29419e-66 2.25173e-66 7.91433e-67 2.73358e-67 9.28041e-68 3.09752e-68 1.01664e-68 3.28187e-69 1.04223e-69 3.25674e-70 1.00151e-70 3.03022e-71 8.97518e-72 2.43384e-72 0 
0 8.52501e-101 5.12969e-100 2.97494e-99 1.70727e-98 9.70179e-98 5.45877e-97 3.04084e-96 1.67691e-95 9.15385e-95 4.94578e-94 2.64461e-93 1.3994e-92 7.32714e-92 3.79573e-91 1.94527e-90 9.8615e-90 4.9447e-89 2.45202e-88 1.20239e-87 5.82988e-87 2.79456e-86 1.32422e-85 6.2022e-85 2.87091e-84 1.31319e-83 5.93493e-83 2.64989e-82 1.16872e-81 5.091e-81 2.19002e-80 9.3022e-80 3.90081e-79 1.6147e-78 6.59685e-78 2.65963e-77 1.05799e-76 4.1519e-76 1.60713e-75 6.13514e-75 2.30937e-74 8.57006e-74 3.13489e-73 1.13014e-72 4.01455e-72 1.40493e-71 4.8429e-71 1.64401e-70 5.49503e-70 1.80806e-69 5.85528e-69 1.86587e-68 5.84957e-68 1.80377e-67 5.46962e-67 1.63063e-66 4.77833e-66 1.376e-65 3.89294e-65 1.08181e-64 2.95209e-64 7.90872e-64 2.07955e-63 5.36549e-63 1.35803e-62 3.37097e-62 8.20407e-62 1.9571e-61 4.57498e-61 1.0477e-60 2.34979e-60 5.16001e-60 1.10911e-59 2.33283e-59 4.80008e-59 9.65944e-59 1.90052e-58 3.65503e-58 6.86895e-58 1.26112e-57 2.26143e-57 3.95966e-57 6.76838e-57 1.12919e-56 1.83831e-56 2.91986e-56 4.52405e-56 6.83691e-56 1.00767e-55 1.44834e-55 2.03007e-55 2.77493e-55 3.69937e-55 4.81063e-55 6.10336e-55 7.55722e-55 9.13604e-55 1.07891e-54 1.24549e-54 1.40665e-54 1.5559e-54 1.6877e-54 1.79813e-54 1.88537e-54 1.94995e-54 1.99462e-54 2.02399e-54 2.04387e-54 2.0605e-54 2.07974e-54 2.10634e-54 2.14343e-54 2.19218e-54 2.25182e-54 2.31993e-54 2.39289e-54 2.46652e-54 2.53674e-54 2.60018e-54 2.6546e-54 2.69912e-54 2.73422e-54 2.7615e-54 2.78335e-54 2.80245e-54 2.82136e-54 2.84215e-54 2.86612e-54 2.89369e-54 2.9244e-54 2.95699e-54 2.98959e-54 3.0199e-54 3.04537e-54 3.06346e-54 3.07177e-54 3.06825e-54 3.05138e-54 3.02028e-54 2.97482e-54 2.91565e-54 2.8442e-54 2.76254e-54 2.67329e-54 2.57946e-54 2.48422e-54 2.39082e-54 2.3024e-54 2.22187e-54 2.1518e-54 2.09429e-54 2.05077e-54 2.02192e-54 2.00758e-54 2.00668e-54 2.01734e-54 2.03707e-54 2.06302e-54 2.09233e-54 2.12244e-54 2.15142e-54 2.17808e-54 2.20206e-54 2.22367e-54 2.24375e-54 2.26331e-54 2.28327e-54 2.30418e-54 2.32605e-54 2.34834e-54 2.37003e-54 2.3899e-54 2.40681e-54 2.42009e-54 2.42979e-54 2.43687e-54 2.44324e-54 2.45149e-54 2.4646e-54 2.48544e-54 2.51623e-54 2.55808e-54 2.61062e-54 2.67187e-54 2.73828e-54 2.80497e-54 2.8662e-54 2.91588e-54 2.94811e-54 2.95771e-54 2.94059e-54 2.89401e-54 2.81676e-54 2.70913e-54 2.57283e-54 2.41093e-54 2.22757e-54 2.02782e-54 1.81739e-54 1.60232e-54 1.38865e-54 1.18208e-54 9.87605e-55 8.09285e-55 6.50008e-55 5.1142e-55 3.93959e-55 2.96987e-55 2.19013e-55 1.57944e-55 1.11358e-55 7.67419e-56 5.16858e-56 3.40166e-56 2.18757e-56 1.3746e-56 8.43991e-57 5.06371e-57 2.96894e-57 1.70129e-57 9.52917e-58 5.21787e-58 2.7936e-58 1.46266e-58 7.49057e-59 3.75289e-59 1.83988e-59 8.82837e-60 4.14703e-60 1.90749e-60 8.59319e-61 3.79247e-61 1.64009e-61 6.95182e-62 2.88882e-62 1.17717e-62 4.70501e-63 1.84497e-63 7.0996e-64 2.6816e-64 9.94434e-65 3.62143e-65 1.29541e-65 4.55259e-66 1.57229e-66 5.33731e-67 1.78126e-67 5.84578e-68 1.88693e-68 5.99188e-69 1.87218e-69 5.75688e-70 1.74171e-70 5.15843e-71 1.39876e-71 0 
0 4.84713e-100 2.91633e-99 1.69113e-98 9.70418e-98 5.51396e-97 3.10216e-96 1.72791e-95 9.52792e-95 5.20059e-94 2.80961e-93 1.50223e-92 7.94844e-92 4.16141e-91 2.1556e-90 1.10464e-89 5.59959e-89 2.80753e-88 1.39213e-87 6.82619e-87 3.30954e-86 1.58635e-85 7.51667e-85 3.5204e-84 1.62948e-83 7.45315e-83 3.36833e-82 1.50389e-81 6.63264e-81 2.88915e-80 1.24282e-79 5.27887e-79 2.21364e-78 9.16313e-78 3.74359e-77 1.5093e-76 6.00399e-76 2.35621e-75 9.12068e-75 3.48185e-74 1.31067e-73 4.86406e-73 1.77932e-72 6.41483e-72 2.27883e-71 7.97541e-71 2.74935e-70 9.33381e-70 3.12e-69 1.02667e-68 3.32507e-68 1.05968e-67 3.32243e-67 1.0246e-66 3.10725e-66 9.26449e-66 2.71513e-65 7.81959e-65 2.21257e-64 6.1493e-64 1.67827e-63 4.49675e-63 1.18256e-62 3.05159e-62 7.72485e-62 1.91779e-61 4.66814e-61 1.11377e-60 2.60401e-60 5.9643e-60 1.33791e-59 2.93845e-59 6.31708e-59 1.32891e-58 2.73485e-58 5.50439e-58 1.08318e-57 2.08349e-57 3.91616e-57 7.1911e-57 1.28969e-56 2.25853e-56 3.86113e-56 6.44253e-56 1.04897e-55 1.66633e-55 2.58212e-55 3.90261e-55 5.75246e-55 8.26886e-55 1.1591e-54 1.5845e-54 2.11248e-54 2.74719e-54 3.48557e-54 4.316e-54 5.2178e-54 6.16203e-54 7.11348e-54 8.03397e-54 8.88643e-54 9.63918e-54 1.02698e-53 1.0768e-53 1.11367e-53 1.13916e-53 1.15591e-53 1.16721e-53 1.17665e-53 1.18754e-53 1.20262e-53 1.22366e-53 1.25133e-53 1.28521e-53 1.32391e-53 1.36537e-53 1.40721e-53 1.44713e-53 1.48319e-53 1.51412e-53 1.53943e-53 1.55938e-53 1.57489e-53 1.5873e-53 1.59815e-53 1.60889e-53 1.6207e-53 1.63432e-53 1.64998e-53 1.66742e-53 1.68593e-53 1.70446e-53 1.72168e-53 1.73616e-53 1.74644e-53 1.75117e-53 1.74919e-53 1.73962e-53 1.72196e-53 1.69614e-53 1.66253e-53 1.62193e-53 1.57553e-53 1.52481e-53 1.47147e-53 1.41734e-53 1.36424e-53 1.31397e-53 1.26819e-53 1.22835e-53 1.19565e-53 1.17091e-53 1.15452e-53 1.14638e-53 1.14588e-53 1.15197e-53 1.16321e-53 1.17799e-53 1.19468e-53 1.21182e-53 1.22831e-53 1.24347e-53 1.2571e-53 1.26938e-53 1.28078e-53 1.29188e-53 1.30322e-53 1.31509e-53 1.32751e-53 1.34018e-53 1.35251e-53 1.36381e-53 1.37342e-53 1.38097e-53 1.38648e-53 1.39051e-53 1.39412e-53 1.39879e-53 1.40623e-53 1.41805e-53 1.43552e-53 1.45928e-53 1.48912e-53 1.52392e-53 1.56164e-53 1.59953e-53 1.63432e-53 1.66254e-53 1.68086e-53 1.6863e-53 1.67655e-53 1.65005e-53 1.60609e-53 1.54484e-53 1.46727e-53 1.37509e-53 1.27068e-53 1.15691e-53 1.03701e-53 9.14442e-54 7.9263e-54 6.74829e-54 5.63898e-54 4.62152e-54 3.71249e-54 2.92134e-54 2.25065e-54 1.69685e-54 1.25146e-54 9.02575e-55 6.36399e-55 4.38595e-55 2.95404e-55 1.94421e-55 1.25031e-55 7.85643e-56 4.82366e-56 2.89395e-56 1.69668e-56 9.7219e-57 5.44497e-57 2.98124e-57 1.59598e-57 8.35531e-58 4.27846e-58 2.14333e-58 1.05065e-58 5.04076e-59 2.36754e-59 1.08884e-59 4.90454e-60 2.16425e-60 9.35822e-61 3.96611e-61 1.64788e-61 6.71407e-62 2.68317e-62 1.05201e-62 4.04768e-63 1.52866e-63 5.6681e-64 2.0639e-64 7.38182e-65 2.59396e-65 8.95752e-66 3.04041e-66 1.01459e-66 3.32937e-67 1.07457e-67 3.41194e-68 1.06598e-68 3.27758e-69 9.91537e-70 2.93643e-70 7.96195e-71 0 
0 2.72877e-99 1.64163e-98 9.51859e-98 5.46148e-97 3.10293e-96 1.74555e-95 9.72186e-95 5.36027e-94 2.92552e-93 1.58038e-92 8.4492e-92 4.47021e-91 2.3402e-90 1.21213e-89 6.21119e-89 3.14833e-88 1.57842e-87 7.82624e-87 3.83731e-86 1.86035e-85 8.91673e-85 4.22486e-84 1.97861e-83 9.15802e-83 4.1887e-82 1.89296e-81 8.45147e-81 3.7273e-80 1.62357e-79 6.98402e-79 2.96644e-78 1.24394e-77 5.14918e-77 2.10371e-76 8.48162e-76 3.37404e-75 1.32414e-74 5.12575e-74 1.95684e-73 7.36635e-73 2.73386e-72 1.00012e-71 3.60584e-71 1.28103e-70 4.4836e-70 1.54573e-69 5.24801e-69 1.75438e-68 5.77349e-68 1.87002e-67 5.96019e-67 1.8689e-66 5.76412e-66 1.74824e-65 5.21312e-65 1.52799e-64 4.40118e-64 1.24549e-63 3.46201e-63 9.44988e-63 2.53236e-62 6.66065e-62 1.71904e-61 4.35231e-61 1.08069e-60 2.63097e-60 6.27831e-60 1.46812e-59 3.36322e-59 7.54566e-59 1.65755e-58 3.56403e-58 7.49891e-58 1.54353e-57 3.10718e-57 6.11553e-57 1.17652e-56 2.21178e-56 4.06209e-56 7.28636e-56 1.2762e-55 2.18209e-55 3.64148e-55 5.92987e-55 9.42102e-55 1.46005e-54 2.20696e-54 3.2534e-54 4.67702e-54 6.55664e-54 8.96362e-54 1.19512e-53 1.55428e-53 1.97212e-53 2.44205e-53 2.95238e-53 3.4867e-53 4.0251e-53 4.54597e-53 5.02832e-53 5.45422e-53 5.811e-53 6.0928e-53 6.30131e-53 6.44541e-53 6.53994e-53 6.60363e-53 6.65659e-53 6.71773e-53 6.80237e-53 6.92057e-53 7.07617e-53 7.26675e-53 7.48453e-53 7.71792e-53 7.95351e-53 8.17825e-53 8.38131e-53 8.5555e-53 8.698e-53 8.81033e-53 8.89762e-53 8.96749e-53 9.02854e-53 9.08898e-53 9.15541e-53 9.23201e-53 9.32012e-53 9.41827e-53 9.52247e-53 9.62672e-53 9.72366e-53 9.80519e-53 9.86313e-53 9.88982e-53 9.87872e-53 9.82493e-53 9.72562e-53 9.58036e-53 9.39122e-53 9.16272e-53 8.90152e-53 8.616e-53 8.31571e-53 8.01089e-53 7.71188e-53 7.42877e-53 7.17091e-53 6.94655e-53 6.76238e-53 6.62306e-53 6.53079e-53 6.48503e-53 6.48236e-53 6.51678e-53 6.58026e-53 6.66365e-53 6.75776e-53 6.85441e-53 6.94733e-53 7.03276e-53 7.10948e-53 7.17857e-53 7.2427e-53 7.30514e-53 7.36887e-53 7.43566e-53 7.50558e-53 7.57688e-53 7.64631e-53 7.70993e-53 7.7641e-53 7.80662e-53 7.83765e-53 7.86028e-53 7.88054e-53 7.90677e-53 7.94852e-53 8.01495e-53 8.1132e-53 8.24683e-53 8.41471e-53 8.61049e-53 8.82278e-53 9.03603e-53 9.23184e-53 9.3907e-53 9.49375e-53 9.52435e-53 9.46935e-53 9.31997e-53 9.07223e-53 8.72694e-53 8.28958e-53 7.76977e-53 7.1808e-53 6.53883e-53 5.86213e-53 5.17009e-53 4.48215e-53 3.81664e-53 3.18977e-53 2.61464e-53 2.10066e-53 1.65323e-53 1.27383e-53 9.60495e-54 7.0845e-54 5.10989e-54 3.60318e-54 2.48336e-54 1.67266e-54 1.10088e-54 7.07968e-55 4.44852e-55 2.7312e-55 1.63851e-55 9.60581e-56 5.50369e-56 3.08221e-56 1.68743e-56 9.03256e-57 4.72823e-57 2.42088e-57 1.21261e-57 5.9434e-58 2.85111e-58 1.33892e-58 6.15686e-59 2.77288e-59 1.22342e-59 5.28931e-60 2.24133e-60 9.31117e-61 3.79315e-61 1.51565e-61 5.94169e-62 2.28578e-62 8.63136e-63 3.19997e-63 1.16504e-63 4.16638e-64 1.46388e-64 5.05448e-65 1.71542e-65 5.72375e-66 1.87804e-66 6.06082e-67 1.92422e-67 6.01122e-68 1.8481e-68 5.59043e-69 1.65547e-69 4.48843e-70 0 
0 1.52091e-98 9.14894e-98 5.30425e-97 3.04312e-96 1.72878e-95 9.72433e-95 5.4155e-94 2.98564e-93 1.62937e-92 8.80117e-92 4.70502e-91 2.48909e-90 1.30298e-89 6.74844e-89 3.4578e-88 1.75258e-87 8.78607e-87 4.35615e-86 2.13577e-85 1.03538e-84 4.96242e-84 2.35116e-83 1.10107e-82 5.09615e-82 2.33082e-81 1.05332e-80 4.70265e-80 2.07395e-79 9.03381e-79 3.88599e-78 1.65056e-77 6.92145e-77 2.86509e-76 1.17056e-75 4.71946e-75 1.87747e-74 7.36831e-74 2.85238e-73 1.08898e-72 4.09956e-72 1.52154e-71 5.56651e-71 2.00707e-70 7.13084e-70 2.49598e-69 8.60558e-69 2.92197e-68 9.76887e-68 3.21513e-67 1.04148e-66 3.31977e-66 1.04108e-65 3.21128e-65 9.74092e-65 2.90503e-64 8.5159e-64 2.45323e-63 6.94338e-63 1.93029e-62 5.26971e-62 1.41239e-61 3.71549e-61 9.59084e-61 2.42865e-60 6.03145e-60 1.46863e-59 3.50524e-59 8.19817e-59 1.87841e-58 4.21515e-58 9.26113e-58 1.99169e-57 4.1914e-57 8.62893e-57 1.73736e-56 3.4201e-56 6.58087e-56 1.23739e-55 2.27295e-55 4.07779e-55 7.14342e-55 1.2216e-54 2.03892e-54 3.32072e-54 5.27648e-54 8.17841e-54 1.23637e-53 1.8228e-53 2.62068e-53 3.6742e-53 5.0234e-53 6.69815e-53 8.71157e-53 1.1054e-52 1.36884e-52 1.65493e-52 1.95448e-52 2.25629e-52 2.54827e-52 2.81864e-52 3.05735e-52 3.25729e-52 3.41519e-52 3.53199e-52 3.61266e-52 3.6655e-52 3.70102e-52 3.73046e-52 3.76441e-52 3.81145e-52 3.87723e-52 3.96388e-52 4.07007e-52 4.19147e-52 4.32161e-52 4.45299e-52 4.57833e-52 4.69159e-52 4.78874e-52 4.86822e-52 4.93086e-52 4.97953e-52 5.01848e-52 5.0525e-52 5.08618e-52 5.1232e-52 5.16588e-52 5.21499e-52 5.26969e-52 5.32777e-52 5.38589e-52 5.43995e-52 5.48542e-52 5.51775e-52 5.53267e-52 5.52653e-52 5.4966e-52 5.44127e-52 5.36033e-52 5.2549e-52 5.12752e-52 4.98188e-52 4.82267e-52 4.65521e-52 4.48519e-52 4.31841e-52 4.16048e-52 4.01664e-52 3.89147e-52 3.78873e-52 3.71103e-52 3.65958e-52 3.6341e-52 3.63268e-52 3.65196e-52 3.68746e-52 3.73407e-52 3.78665e-52 3.84062e-52 3.8925e-52 3.94016e-52 3.98294e-52 4.02145e-52 4.05717e-52 4.09195e-52 4.12744e-52 4.16465e-52 4.20363e-52 4.24338e-52 4.28211e-52 4.3176e-52 4.34782e-52 4.37154e-52 4.38884e-52 4.40145e-52 4.41271e-52 4.42729e-52 4.4505e-52 4.48748e-52 4.54219e-52 4.61663e-52 4.71018e-52 4.8193e-52 4.93764e-52 5.05653e-52 5.1657e-52 5.25428e-52 5.31173e-52 5.32876e-52 5.29804e-52 5.21466e-52 5.07634e-52 4.88355e-52 4.6393e-52 4.34893e-52 4.01984e-52 3.66103e-52 3.28269e-52 2.89566e-52 2.51079e-52 2.13835e-52 1.78743e-52 1.46539e-52 1.1775e-52 9.26827e-53 7.14222e-53 5.38598e-53 3.97302e-53 2.86588e-53 2.02097e-53 1.39294e-53 9.38239e-54 6.17522e-54 3.97121e-54 2.49526e-54 1.53193e-54 9.18993e-55 5.38728e-55 3.08643e-55 1.72833e-55 9.46119e-56 5.06389e-56 2.65046e-56 1.35687e-56 6.79563e-57 3.33031e-57 1.59735e-57 7.50026e-58 3.44838e-58 1.55282e-58 6.85012e-59 2.9611e-59 1.25456e-59 5.21101e-60 2.12251e-60 8.47974e-61 3.32373e-61 1.27845e-61 4.82687e-62 1.78924e-62 6.5133e-63 2.32895e-63 8.18179e-64 2.82464e-64 9.5852e-65 3.19786e-65 1.04914e-65 3.38541e-66 1.0747e-66 3.35699e-67 1.03198e-67 3.12141e-68 9.24253e-69 2.50572e-69 0 
0 8.39184e-98 5.04758e-97 2.92613e-96 1.6786e-95 9.53518e-95 5.36301e-94 2.98641e-93 1.64632e-92 8.98377e-92 4.85229e-91 2.5938e-90 1.37209e-89 7.18207e-89 3.71954e-88 1.90571e-87 9.65854e-87 4.84177e-86 2.40043e-85 1.17685e-84 5.70491e-84 2.73416e-83 1.29538e-82 6.06621e-82 2.80758e-81 1.28407e-80 5.80272e-80 2.59064e-79 1.14251e-78 4.97656e-78 2.14072e-77 9.09265e-77 3.81295e-76 1.57837e-75 6.44866e-75 2.60004e-74 1.03436e-73 4.05959e-73 1.57159e-72 6.00028e-72 2.25896e-71 8.38454e-71 3.06765e-70 1.10615e-69 3.93028e-69 1.37581e-68 4.74387e-68 1.6109e-67 5.38614e-67 1.77286e-66 5.74345e-66 1.83097e-65 5.74256e-65 1.77156e-64 5.37445e-64 1.60304e-63 4.69986e-63 1.35412e-62 3.83314e-62 1.0658e-61 2.91012e-61 7.80101e-61 2.05252e-60 5.29913e-60 1.34212e-59 3.33371e-59 8.11897e-59 1.93816e-58 4.5339e-58 1.03903e-57 2.33206e-57 5.12481e-57 1.10236e-56 2.32032e-56 4.77784e-56 9.6217e-56 1.89446e-55 3.64598e-55 6.85676e-55 1.25975e-54 2.26048e-54 3.96056e-54 6.77415e-54 1.13083e-53 1.84202e-53 2.92732e-53 4.53789e-53 6.861e-53 1.01164e-52 1.45461e-52 2.03956e-52 2.78873e-52 3.71872e-52 4.83681e-52 6.13762e-52 7.60063e-52 9.18939e-52 1.08528e-51 1.25288e-51 1.415e-51 1.56512e-51 1.69764e-51 1.80863e-51 1.89627e-51 1.96106e-51 2.00578e-51 2.03503e-51 2.05464e-51 2.07084e-51 2.0895e-51 2.11539e-51 2.15163e-51 2.19942e-51 2.25803e-51 2.32505e-51 2.39692e-51 2.46949e-51 2.53873e-51 2.60129e-51 2.65496e-51 2.69886e-51 2.73346e-51 2.76034e-51 2.78184e-51 2.80062e-51 2.8192e-51 2.83963e-51 2.86319e-51 2.89029e-51 2.92049e-51 2.95256e-51 2.98465e-51 3.0145e-51 3.03963e-51 3.0575e-51 3.06576e-51 3.0624e-51 3.0459e-51 3.01538e-51 2.9707e-51 2.9125e-51 2.84216e-51 2.76174e-51 2.67381e-51 2.58131e-51 2.48739e-51 2.39525e-51 2.308e-51 2.22852e-51 2.15936e-51 2.1026e-51 2.05967e-51 2.03127e-51 2.01721e-51 2.01647e-51 2.02717e-51 2.04683e-51 2.07264e-51 2.10173e-51 2.13158e-51 2.16026e-51 2.1866e-51 2.21023e-51 2.23148e-51 2.25118e-51 2.27037e-51 2.28995e-51 2.31048e-51 2.33199e-51 2.35395e-51 2.37534e-51 2.39495e-51 2.41165e-51 2.42476e-51 2.43431e-51 2.44126e-51 2.44746e-51 2.45548e-51 2.46827e-51 2.48865e-51 2.51882e-51 2.5599e-51 2.61153e-51 2.67177e-51 2.73711e-51 2.80276e-51 2.86305e-51 2.91197e-51 2.9437e-51 2.9531e-51 2.93611e-51 2.89e-51 2.81353e-51 2.70691e-51 2.5718e-51 2.41115e-51 2.22902e-51 2.03039e-51 1.82087e-51 1.60647e-51 1.39319e-51 1.18674e-51 9.92161e-52 8.13534e-52 6.53811e-52 5.14696e-52 3.96681e-52 2.99173e-52 2.20709e-52 1.59218e-52 1.12285e-52 7.73952e-53 5.21321e-53 3.43121e-53 2.20656e-53 1.38643e-53 8.51142e-54 5.10565e-54 2.9928e-54 1.71446e-54 9.59967e-55 5.25447e-55 2.812e-55 1.47163e-55 7.53282e-56 3.77212e-56 1.84831e-56 8.86389e-57 4.16133e-57 1.91294e-57 8.61262e-58 3.79875e-58 1.64181e-58 6.95486e-59 2.88832e-59 1.17625e-59 4.69853e-60 1.84134e-60 7.08148e-61 2.67322e-61 9.90769e-62 3.6061e-62 1.28924e-62 4.52854e-63 1.56319e-63 5.30386e-64 1.76927e-64 5.80378e-65 1.87257e-65 5.9438e-66 1.85643e-66 5.7063e-67 1.7258e-67 5.10963e-68 1.38515e-68 0 
0 4.58338e-97 2.75659e-96 1.59787e-95 9.16548e-95 5.20592e-94 2.92779e-93 1.63021e-92 8.98613e-92 4.90326e-91 2.64813e-90 1.41546e-89 7.48716e-89 3.91881e-88 2.0294e-87 1.03971e-86 5.26915e-86 2.64126e-85 1.30941e-84 6.41931e-84 3.11171e-83 1.49128e-82 7.06512e-82 3.30847e-81 1.5312e-80 7.00294e-80 3.16459e-79 1.41283e-78 6.23073e-78 2.71399e-77 1.16746e-76 4.95879e-76 2.07947e-75 8.6081e-75 3.51706e-74 1.41809e-73 5.64171e-73 2.21431e-72 8.57262e-72 3.27317e-71 1.23234e-70 4.57433e-70 1.67373e-69 6.03565e-69 2.14471e-68 7.50826e-68 2.58914e-67 8.79291e-67 2.94027e-66 9.67904e-66 3.13603e-65 9.99863e-65 3.13633e-64 9.67675e-64 2.93609e-63 8.75874e-63 2.56832e-62 7.40097e-62 2.09535e-61 5.82708e-61 1.59133e-60 4.26657e-60 1.12278e-59 2.89931e-59 7.34452e-59 1.82468e-58 4.44474e-58 1.06126e-57 2.48311e-57 5.69172e-57 1.27775e-56 2.8085e-56 6.04242e-56 1.27212e-55 2.62002e-55 5.27736e-55 1.0393e-54 2.0006e-54 3.76316e-54 6.9152e-54 1.24109e-53 2.17491e-53 3.72064e-53 6.21204e-53 1.01205e-52 1.60859e-52 2.49397e-52 3.77122e-52 5.56129e-52 7.99729e-52 1.12143e-51 1.53349e-51 2.04502e-51 2.66004e-51 3.37558e-51 4.18035e-51 5.05428e-51 5.96925e-51 6.89108e-51 7.78275e-51 8.60831e-51 9.33703e-51 9.94723e-51 1.04289e-50 1.07849e-50 1.10304e-50 1.11907e-50 1.12978e-50 1.1386e-50 1.14875e-50 1.16286e-50 1.18263e-50 1.20874e-50 1.24077e-50 1.27741e-50 1.31672e-50 1.35642e-50 1.3943e-50 1.42853e-50 1.45789e-50 1.4819e-50 1.50083e-50 1.51552e-50 1.52728e-50 1.53754e-50 1.5477e-50 1.55886e-50 1.57174e-50 1.58655e-50 1.60306e-50 1.6206e-50 1.63815e-50 1.65448e-50 1.66823e-50 1.67801e-50 1.68254e-50 1.68072e-50 1.67171e-50 1.65504e-50 1.63062e-50 1.5988e-50 1.56034e-50 1.51635e-50 1.46826e-50 1.41766e-50 1.36627e-50 1.31586e-50 1.26812e-50 1.22463e-50 1.18679e-50 1.15573e-50 1.13224e-50 1.11671e-50 1.10904e-50 1.10865e-50 1.11453e-50 1.12532e-50 1.13947e-50 1.15541e-50 1.17176e-50 1.18747e-50 1.20188e-50 1.2148e-50 1.22642e-50 1.23718e-50 1.24766e-50 1.25835e-50 1.26957e-50 1.28134e-50 1.29334e-50 1.30505e-50 1.31578e-50 1.32492e-50 1.33209e-50 1.33732e-50 1.34111e-50 1.34449e-50 1.34886e-50 1.35583e-50 1.36695e-50 1.38344e-50 1.40588e-50 1.43411e-50 1.46704e-50 1.50277e-50 1.53867e-50 1.57165e-50 1.59841e-50 1.61576e-50 1.6209e-50 1.6116e-50 1.58636e-50 1.54448e-50 1.48609e-50 1.41208e-50 1.32405e-50 1.22422e-50 1.11531e-50 1.00039e-50 8.82759e-51 7.65704e-51 6.52357e-51 5.4549e-51 4.47356e-51 3.59582e-51 2.83113e-51 2.18227e-51 1.64603e-51 1.21445e-51 8.76161e-52 6.17929e-52 4.25943e-52 2.86915e-52 1.88842e-52 1.21439e-52 7.63006e-53 4.68396e-53 2.80953e-53 1.64675e-53 9.43273e-54 5.28106e-54 2.8903e-54 1.54659e-54 8.09276e-55 4.14184e-55 2.07375e-55 1.01596e-55 4.8714e-56 2.28659e-56 1.05095e-56 4.73086e-57 2.08626e-57 9.01516e-58 3.81823e-58 1.58541e-58 6.45536e-59 2.57813e-59 1.01019e-59 3.88433e-60 1.46607e-60 5.43275e-61 1.97704e-61 7.06711e-62 2.48199e-62 8.56621e-63 2.90607e-63 9.69274e-64 3.17911e-64 1.02559e-64 3.25498e-65 1.01651e-65 3.12418e-66 9.44768e-67 2.79692e-67 7.58144e-68 0 