# vtk DataFile Version 3.0
Gray-Scott Simulation Output
ASCII
DATASET STRUCTURED_POINTS
DIMENSIONS 256 256 1
SPACING 1.0 1.0 1.0
ORIGIN 0 0 0
POINT_DATA 65536
SCALARS u double
LOOKUP_TABLE default
0 0 0 0 0 0 0 0 0 0 0 0 0 0 0 0 0 0 0 0 0 0 0 0 0 0 0 0 0 0 0 0 0 0 0 0 0 0 0 0 0 0 0 0 0 0 0 0 0 0 0 0 0 0 0 0 0 0 0 0 0 0 0 0 0 0 0 0 0 0 0 0 0 0 0 0 0 0 0 0 0 0 0 0 0 0 0 0 0 0 0 0 0 0 0 0 0 0 0 0 0 0 0 0 0 0 0 0 0 0 0 0 0 0 0 0 0 0 0 0 0 0 0 0 0 0 0 0 0 0 0 0 0 0 0 0 0 0 0 0 0 0 0 0 0 0 0 0 0 0 0 0 0 0 0 0 0 0 0 0 0 0 0 0 0 0 0 0 0 0 0 0 0 0 0 0 0 0 0 0 0 0 0 0 0 0 0 0 0 0 0 0 0 0 0 0 0 0 0 0 0 0 0 0 0 0 0 0 0 0 0 0 0 0 0 0 0 0 0 0 0 0 0 0 0 0 0 0 0 0 0 0 0 0 0 0 0 0 0 0 0 0 0 0 0 0 0 0 0 0 0 0 0 0 0 0 
0 1.82702e-88 8.35384e-88 3.609e-87 1.54129e-86 6.52121e-86 2.73362e-85 1.13523e-84 4.6702e-84 1.90308e-83 7.68093e-83 3.07024e-82 1.21534e-81 4.76382e-81 1.84887e-80 7.10425e-80 2.70241e-79 1.01758e-78 3.79253e-78 1.39893e-77 5.1066e-77 1.84456e-76 6.59237e-76 2.33096e-75 8.15323e-75 2.82088e-74 9.65286e-74 3.26663e-73 1.09313e-72 3.6168e-72 1.18308e-71 3.82554e-71 1.22268e-70 3.86211e-70 1.20554e-69 3.71818e-69 1.13298e-68 3.41041e-68 1.01398e-67 2.97741e-67 8.63336e-67 2.47171e-66 6.98614e-66 1.94913e-65 5.36728e-65 1.45853e-64 3.91084e-64 1.03456e-63 2.69966e-63 6.94823e-63 1.76354e-62 4.41349e-62 1.08893e-61 2.64832e-61 6.34797e-61 1.49942e-60 3.48956e-60 8.00037e-60 1.80664e-59 4.01783e-59 8.79826e-59 1.89679e-58 4.02524e-58 8.40704e-58 1.72784e-57 3.49385e-57 6.94983e-57 1.35971e-56 2.61606e-56 4.94895e-56 9.20395e-56 1.68253e-55 3.02285e-55 5.33665e-55 9.25671e-55 1.57732e-54 2.63998e-54 4.33952e-54 7.00475e-54 1.1102e-53 1.72753e-53 2.63888e-53 3.95687e-53 5.82359e-53 8.41222e-53 1.1926e-52 1.65935e-52 2.26588e-52 3.03672e-52 3.99449e-52 5.15758e-52 6.53746e-52 8.13617e-52 9.9442e-52 1.19391e-51 1.40854e-51 1.63356e-51 1.86331e-51 2.09156e-51 2.31208e-51 2.5191e-51 2.70786e-51 2.87504e-51 3.01901e-51 3.13997e-51 3.23983e-51 3.3219e-51 3.3905e-51 3.45037e-51 3.50618e-51 3.562e-51 3.6209e-51 3.68474e-51 3.75409e-51 3.82835e-51 3.90597e-51 3.98484e-51 4.06261e-51 4.13709e-51 4.20657e-51 4.26996e-51 4.32693e-51 4.3778e-51 4.42345e-51 4.46511e-51 4.50406e-51 4.54145e-51 4.57805e-51 4.61415e-51 4.64943e-51 4.68299e-51 4.71341e-51 4.73888e-51 4.75733e-51 4.76662e-51 4.76475e-51 4.75001e-51 4.72115e-51 4.67752e-51 4.61913e-51 4.5467e-51 4.46164e-51 4.36603e-51 4.26249e-51 4.15405e-51 4.04402e-51 3.9358e-51 3.83272e-51 3.73785e-51 3.65382e-51 3.58271e-51 3.52592e-51 3.4841e-51 3.45714e-51 3.44422e-51 3.4439e-51 3.45427e-51 3.47316e-51 3.49834e-51 3.52769e-51 3.55941e-51 3.59207e-51 3.6247e-51 3.65672e-51 3.6879e-51 3.7182e-51 3.74767e-51 3.77633e-51 3.80415e-51 3.83096e-51 3.85656e-51 3.88081e-51 3.90373e-51 3.92563e-51 3.94717e-51 3.9694e-51 3.99368e-51 4.02155e-51 4.05445e-51 4.09354e-51 4.13935e-51 4.19158e-51 4.24891e-51 4.30893e-51 4.36818e-51 4.42229e-51 4.46628e-51 4.49486e-51 4.50279e-51 4.48527e-51 4.4383e-51 4.35893e-51 4.24549e-51 4.09772e-51 3.91679e-51 3.70529e-51 3.46709e-51 3.20713e-51 2.93121e-51 2.64564e-51 2.35697e-51 2.07161e-51 1.79553e-51 1.53397e-51 1.29122e-51 1.07047e-51 8.73736e-52 7.01905e-52 5.54802e-52 4.31362e-52 3.29828e-52 2.47963e-52 1.83259e-52 1.33124e-52 9.50409e-53 6.66785e-53 4.59678e-53 3.11381e-53 2.07249e-53 1.35534e-53 8.70892e-54 5.49862e-54 3.41141e-54 2.07983e-54 1.24613e-54 7.33791e-55 4.24713e-55 2.41642e-55 1.35159e-55 7.43304e-56 4.01959e-56 2.13769e-56 1.11817e-56 5.75348e-57 2.91251e-57 1.4507e-57 7.11089e-58 3.43054e-58 1.62913e-58 7.61671e-59 3.50637e-59 1.58961e-59 7.09783e-60 3.12196e-60 1.35288e-60 5.77672e-61 2.43084e-61 1.0082e-61 4.12205e-62 1.66156e-62 6.60389e-63 2.5878e-63 9.98299e-64 3.74625e-64 1.24079e-64 0 
0 8.35592e-88 3.82078e-87 1.65071e-86 7.04993e-86 2.98297e-85 1.25049e-84 5.19338e-84 2.13661e-83 8.70707e-83 3.51445e-82 1.4049e-81 5.56163e-81 2.18018e-80 8.46212e-80 3.25182e-79 1.23708e-78 4.65858e-78 1.73643e-77 6.40574e-77 2.33857e-76 8.44813e-76 3.01966e-75 1.06783e-74 3.73553e-74 1.2926e-73 4.42378e-73 1.49726e-72 5.01109e-72 1.65825e-71 5.42509e-71 1.7545e-70 5.60848e-70 1.77187e-69 5.53176e-69 1.70644e-68 5.20074e-68 1.56578e-67 4.65629e-67 1.36753e-66 3.96613e-66 1.13573e-65 3.21078e-65 8.96008e-65 2.46788e-64 6.7079e-64 1.79905e-63 4.76029e-63 1.2425e-62 3.19867e-62 8.12068e-62 2.03283e-61 5.01687e-61 1.22046e-60 2.9262e-60 6.91374e-60 1.60947e-59 3.69099e-59 8.33738e-59 1.8547e-58 4.06259e-58 8.76098e-58 1.85974e-57 3.88534e-57 7.9876e-57 1.61563e-56 3.21469e-56 6.29123e-56 1.21077e-55 2.29114e-55 4.2622e-55 7.79369e-55 1.4006e-54 2.47332e-54 4.29121e-54 7.31396e-54 1.22444e-53 2.01317e-53 3.25033e-53 5.15264e-53 8.01936e-53 1.22523e-52 1.83749e-52 2.70478e-52 3.90765e-52 5.54061e-52 7.7099e-52 1.05291e-51 1.41121e-51 1.85641e-51 2.39705e-51 3.03844e-51 3.7815e-51 4.62176e-51 5.54875e-51 6.54591e-51 7.59112e-51 8.65798e-51 9.71757e-51 1.07408e-50 1.17009e-50 1.25758e-50 1.33499e-50 1.40159e-50 1.45748e-50 1.50353e-50 1.54131e-50 1.57281e-50 1.60026e-50 1.62581e-50 1.65137e-50 1.67837e-50 1.70767e-50 1.73953e-50 1.77368e-50 1.80941e-50 1.84573e-50 1.88156e-50 1.91588e-50 1.9479e-50 1.97711e-50 2.00335e-50 2.02679e-50 2.04781e-50 2.067e-50 2.08494e-50 2.10216e-50 2.11902e-50 2.13566e-50 2.15193e-50 2.16741e-50 2.18146e-50 2.19322e-50 2.20175e-50 2.20606e-50 2.20523e-50 2.19846e-50 2.18518e-50 2.16508e-50 2.13817e-50 2.10479e-50 2.06557e-50 2.02149e-50 1.97374e-50 1.92373e-50 1.87298e-50 1.82307e-50 1.77553e-50 1.73178e-50 1.69303e-50 1.66025e-50 1.63407e-50 1.61481e-50 1.6024e-50 1.59647e-50 1.59635e-50 1.60117e-50 1.6099e-50 1.62153e-50 1.63507e-50 1.6497e-50 1.66476e-50 1.67979e-50 1.69454e-50 1.70889e-50 1.72284e-50 1.7364e-50 1.7496e-50 1.76241e-50 1.77476e-50 1.78655e-50 1.79772e-50 1.80828e-50 1.81836e-50 1.82828e-50 1.83851e-50 1.84969e-50 1.86251e-50 1.87767e-50 1.89568e-50 1.91679e-50 1.94088e-50 1.96734e-50 1.99505e-50 2.02241e-50 2.04742e-50 2.06777e-50 2.08102e-50 2.08475e-50 2.07673e-50 2.05512e-50 2.01854e-50 1.96622e-50 1.89801e-50 1.81447e-50 1.71676e-50 1.60667e-50 1.48648e-50 1.35885e-50 1.22672e-50 1.09309e-50 9.60942e-51 8.33045e-51 7.11832e-51 5.99296e-51 4.96926e-51 4.05668e-51 3.25937e-51 2.57663e-51 2.00358e-51 1.53213e-51 1.15195e-51 8.51406e-52 6.1851e-52 4.41582e-52 3.09806e-52 2.13575e-52 1.44669e-52 9.62839e-53 6.29623e-53 4.0454e-53 2.55392e-53 1.5843e-53 9.65771e-54 5.78558e-54 3.40636e-54 1.97124e-54 1.12135e-54 6.27093e-55 3.44799e-55 1.8642e-55 9.91202e-56 5.1836e-56 2.66659e-56 1.34956e-56 6.7205e-57 3.29339e-57 1.58846e-57 7.54162e-58 3.52508e-58 1.62238e-58 7.35319e-59 3.28249e-59 1.44344e-59 6.25348e-60 2.66955e-60 1.12307e-60 4.65684e-61 1.9035e-61 7.671e-62 3.04813e-62 1.19416e-62 4.6057e-63 1.72798e-63 5.72226e-64 0 
0 3.6109e-87 1.65116e-86 7.1339e-86 3.04694e-85 1.28929e-84 5.40514e-84 2.24493e-83 9.23649e-83 3.7643e-82 1.5195e-81 6.07468e-81 2.40501e-80 9.42853e-80 3.65992e-79 1.40657e-78 5.3515e-78 2.01548e-77 7.51328e-77 2.77199e-76 1.01211e-75 3.65671e-75 1.30721e-74 4.62328e-74 1.61756e-73 5.59804e-73 1.91616e-72 6.48643e-72 2.17126e-71 7.18627e-71 2.35145e-70 7.60611e-70 2.43184e-69 7.68432e-69 2.39952e-68 7.40357e-68 2.25687e-67 6.79621e-67 2.02149e-66 5.93837e-66 1.72266e-65 4.93418e-65 1.39526e-64 3.89463e-64 1.07298e-63 2.91721e-63 7.82603e-63 2.07134e-62 5.40798e-62 1.39262e-61 3.53657e-61 8.85565e-61 2.18616e-60 5.31991e-60 1.27591e-59 3.01554e-59 7.02217e-59 1.61091e-58 3.63997e-58 8.09996e-58 1.77483e-57 3.82867e-57 8.13e-57 1.69907e-56 3.49416e-56 7.0699e-56 1.40719e-55 2.75481e-55 5.30346e-55 1.00389e-54 1.86814e-54 3.41707e-54 6.14268e-54 1.08506e-53 1.88314e-53 3.21054e-53 5.3763e-53 8.84181e-53 1.4279e-52 2.26415e-52 3.52463e-52 5.38621e-52 8.07936e-52 1.1895e-51 1.71877e-51 2.43739e-51 3.39212e-51 4.63297e-51 6.21011e-51 8.16983e-51 1.05496e-50 1.33727e-50 1.66432e-50 2.0341e-50 2.44199e-50 2.88066e-50 3.34035e-50 3.80942e-50 4.27511e-50 4.7246e-50 5.14611e-50 5.5299e-50 5.86919e-50 6.16073e-50 6.40497e-50 6.60587e-50 6.77027e-50 6.90702e-50 7.0259e-50 7.13647e-50 7.24707e-50 7.364e-50 7.49108e-50 7.6295e-50 7.77803e-50 7.93356e-50 8.09176e-50 8.24787e-50 8.39746e-50 8.53701e-50 8.66433e-50 8.77871e-50 8.88081e-50 8.97241e-50 9.05597e-50 9.13411e-50 9.20914e-50 9.28264e-50 9.35519e-50 9.42615e-50 9.49373e-50 9.55506e-50 9.60648e-50 9.64381e-50 9.66275e-50 9.65925e-50 9.62986e-50 9.57206e-50 9.4845e-50 9.36721e-50 9.22163e-50 9.0506e-50 8.85829e-50 8.64998e-50 8.43179e-50 8.21039e-50 7.99263e-50 7.78522e-50 7.59434e-50 7.42531e-50 7.28233e-50 7.16822e-50 7.08427e-50 7.03027e-50 7.00455e-50 7.00417e-50 7.02529e-50 7.06352e-50 7.11434e-50 7.17348e-50 7.2373e-50 7.30294e-50 7.36845e-50 7.43269e-50 7.49519e-50 7.55591e-50 7.61497e-50 7.67244e-50 7.72823e-50 7.78202e-50 7.83341e-50 7.88209e-50 7.92808e-50 7.97199e-50 8.01516e-50 8.05969e-50 8.10834e-50 8.16418e-50 8.23018e-50 8.30868e-50 8.40078e-50 8.5059e-50 8.6214e-50 8.74243e-50 8.86203e-50 8.97143e-50 9.06056e-50 9.11871e-50 9.13533e-50 9.1007e-50 9.00667e-50 8.84722e-50 8.61891e-50 8.32112e-50 7.95613e-50 7.52906e-50 7.04763e-50 6.52177e-50 5.96313e-50 5.38448e-50 4.79904e-50 4.21984e-50 3.65903e-50 3.1273e-50 2.63345e-50 2.18405e-50 1.78329e-50 1.43304e-50 1.13303e-50 8.81157e-51 6.73894e-51 5.06718e-51 3.74542e-51 2.72102e-51 1.94271e-51 1.36297e-51 9.39596e-52 6.36428e-52 4.23547e-52 2.76945e-52 1.77923e-52 1.12313e-52 6.96627e-53 4.24593e-53 2.54317e-53 1.49706e-53 8.66179e-54 4.92627e-54 2.75434e-54 1.5141e-54 8.18423e-55 4.35053e-55 2.27459e-55 1.16981e-55 5.91887e-56 2.94667e-56 1.44363e-56 6.96095e-57 3.30397e-57 1.5439e-57 7.10362e-58 3.21871e-58 1.43644e-58 6.3148e-59 2.73502e-59 1.16723e-59 4.90912e-60 2.03502e-60 8.31596e-61 3.35037e-61 1.33094e-61 5.21284e-62 2.00999e-62 7.53933e-63 2.49619e-63 0 
0 1.54253e-86 7.05387e-86 3.0478e-85 1.3018e-84 5.50881e-84 2.30962e-83 9.59326e-83 3.9473e-82 1.60883e-81 6.49474e-81 2.59669e-80 1.02814e-79 4.03106e-79 1.56491e-78 6.01482e-78 2.28868e-77 8.62056e-77 3.21395e-76 1.18592e-75 4.33056e-75 1.56483e-74 5.59477e-74 1.97901e-73 6.92508e-73 2.397e-72 8.20605e-72 2.77831e-71 9.30166e-71 3.07915e-70 1.00773e-69 3.26026e-69 1.04258e-68 3.2951e-68 1.02915e-67 3.17606e-67 9.68389e-67 2.91682e-66 8.67793e-66 2.54986e-65 7.39871e-65 2.11973e-64 5.99561e-64 1.67402e-63 4.61318e-63 1.25458e-62 3.36663e-62 8.91312e-62 2.32778e-61 5.99612e-61 1.52318e-60 3.81526e-60 9.42157e-60 2.29342e-59 5.50226e-59 1.30085e-58 3.03025e-58 6.95385e-58 1.57181e-57 3.4989e-57 7.66927e-57 1.655e-56 3.51552e-56 7.34958e-56 1.51197e-55 3.06031e-55 6.09334e-55 1.19328e-54 2.29805e-54 4.35146e-54 8.1003e-54 1.48214e-53 2.66522e-53 4.70942e-53 8.17577e-53 1.39429e-52 2.33553e-52 3.84206e-52 6.20635e-52 9.84357e-52 1.53273e-51 2.34279e-51 3.51494e-51 5.17592e-51 7.48028e-51 1.06094e-50 1.47671e-50 2.01713e-50 2.70404e-50 3.55761e-50 4.59412e-50 5.82369e-50 7.24795e-50 8.85814e-50 1.0634e-49 1.25434e-49 1.45438e-49 1.65843e-49 1.86092e-49 2.05627e-49 2.23934e-49 2.4059e-49 2.55299e-49 2.67922e-49 2.78479e-49 2.87144e-49 2.94218e-49 3.00086e-49 3.05175e-49 3.09903e-49 3.14632e-49 3.19638e-49 3.25088e-49 3.31033e-49 3.37421e-49 3.44117e-49 3.50932e-49 3.5766e-49 3.64108e-49 3.70125e-49 3.75613e-49 3.80543e-49 3.84943e-49 3.8889e-49 3.92489e-49 3.95855e-49 3.99089e-49 4.02257e-49 4.05386e-49 4.08448e-49 4.11365e-49 4.14015e-49 4.16238e-49 4.17854e-49 4.18678e-49 4.18533e-49 4.17271e-49 4.14783e-49 4.1101e-49 4.05953e-49 3.99674e-49 3.92296e-49 3.83999e-49 3.7501e-49 3.65594e-49 3.56039e-49 3.46641e-49 3.3769e-49 3.29453e-49 3.2216e-49 3.15993e-49 3.11071e-49 3.07454e-49 3.05129e-49 3.04025e-49 3.04016e-49 3.04933e-49 3.06588e-49 3.08785e-49 3.11339e-49 3.14093e-49 3.16924e-49 3.19747e-49 3.22514e-49 3.25206e-49 3.2782e-49 3.30364e-49 3.32839e-49 3.35242e-49 3.3756e-49 3.39775e-49 3.41872e-49 3.43854e-49 3.45746e-49 3.47604e-49 3.49521e-49 3.51615e-49 3.5402e-49 3.56864e-49 3.60248e-49 3.64221e-49 3.68758e-49 3.73746e-49 3.78976e-49 3.84148e-49 3.88882e-49 3.92744e-49 3.95271e-49 3.96005e-49 3.94527e-49 3.90482e-49 3.83609e-49 3.73757e-49 3.60897e-49 3.45126e-49 3.26662e-49 3.05837e-49 2.83079e-49 2.5889e-49 2.33823e-49 2.0845e-49 1.83336e-49 1.59009e-49 1.35933e-49 1.14492e-49 9.49734e-50 7.75612e-50 6.23386e-50 4.92955e-50 3.83424e-50 2.93269e-50 2.20537e-50 1.63022e-50 1.1844e-50 8.45637e-51 5.93286e-51 4.08986e-51 2.77012e-51 1.84341e-51 1.20525e-51 7.74232e-52 4.88667e-52 3.03057e-52 1.84683e-52 1.106e-52 6.50935e-53 3.76545e-53 2.14108e-53 1.19683e-53 6.57759e-54 3.55454e-54 1.88902e-54 9.87376e-55 5.07665e-55 2.56791e-55 1.27806e-55 6.25965e-56 3.01744e-56 1.43179e-56 6.68859e-57 3.07657e-57 1.39361e-57 6.21752e-58 2.7325e-58 1.18314e-58 5.04779e-59 2.12238e-59 8.79555e-60 3.5932e-60 1.44724e-60 5.74756e-61 2.2505e-61 8.67524e-62 3.25319e-62 1.07688e-62 0 
0 6.52834e-86 2.98549e-85 1.29002e-84 5.51039e-84 2.33196e-83 9.77763e-83 4.06153e-82 1.67131e-81 6.8124e-81 2.75035e-80 1.09973e-79 4.35468e-79 1.70753e-78 6.62951e-78 2.54837e-77 9.6978e-77 3.65322e-76 1.36217e-75 5.02695e-75 1.83591e-74 6.63491e-74 2.37254e-73 8.39356e-73 2.93758e-72 1.01696e-71 3.48212e-71 1.17914e-70 3.94842e-70 1.3073e-69 4.27928e-69 1.38474e-68 4.42908e-68 1.40012e-67 4.37389e-67 1.35013e-66 4.11753e-66 1.24051e-65 3.69158e-65 1.08498e-64 3.14899e-64 9.02423e-64 2.55317e-63 7.1306e-63 1.96558e-62 5.34704e-62 1.43528e-61 3.80104e-61 9.92996e-61 2.55865e-60 6.50176e-60 1.62908e-59 4.02425e-59 9.79918e-59 2.35176e-58 5.56198e-58 1.29607e-57 2.97528e-57 6.72753e-57 1.49811e-56 3.28489e-56 7.0912e-56 1.50685e-55 3.15137e-55 6.48543e-55 1.31316e-54 2.61555e-54 5.12398e-54 9.8714e-54 1.86985e-53 3.48196e-53 6.37326e-53 1.14644e-52 2.02642e-52 3.51909e-52 6.00332e-52 1.0059e-51 1.65523e-51 2.67456e-51 4.2431e-51 6.60853e-51 1.01035e-50 1.51619e-50 2.2331e-50 3.22788e-50 4.57889e-50 6.37422e-50 8.70796e-50 1.16745e-49 1.53608e-49 1.98372e-49 2.51471e-49 3.12972e-49 3.82493e-49 4.59152e-49 5.4156e-49 6.27868e-49 7.15873e-49 8.03169e-49 8.87339e-49 9.66163e-49 1.03781e-48 1.10103e-48 1.15519e-48 1.20042e-48 1.23746e-48 1.26761e-48 1.29255e-48 1.31413e-48 1.33415e-48 1.35418e-48 1.37541e-48 1.39857e-48 1.42387e-48 1.4511e-48 1.47966e-48 1.50876e-48 1.5375e-48 1.56505e-48 1.59076e-48 1.61421e-48 1.63527e-48 1.65406e-48 1.67092e-48 1.68629e-48 1.70066e-48 1.71447e-48 1.72801e-48 1.74138e-48 1.75448e-48 1.76697e-48 1.77831e-48 1.78784e-48 1.79478e-48 1.79833e-48 1.79774e-48 1.79237e-48 1.78175e-48 1.76564e-48 1.74403e-48 1.71718e-48 1.68564e-48 1.65015e-48 1.6117e-48 1.57142e-48 1.53055e-48 1.49034e-48 1.45205e-48 1.41682e-48 1.38563e-48 1.35926e-48 1.33822e-48 1.32277e-48 1.31285e-48 1.30816e-48 1.30814e-48 1.3121e-48 1.3192e-48 1.32861e-48 1.33955e-48 1.35133e-48 1.36343e-48 1.37549e-48 1.3873e-48 1.39879e-48 1.40995e-48 1.4208e-48 1.43137e-48 1.44163e-48 1.45153e-48 1.46099e-48 1.46995e-48 1.47841e-48 1.48649e-48 1.49442e-48 1.5026e-48 1.51153e-48 1.5218e-48 1.53394e-48 1.5484e-48 1.56539e-48 1.5848e-48 1.60616e-48 1.62857e-48 1.65074e-48 1.67105e-48 1.68764e-48 1.69853e-48 1.70175e-48 1.6955e-48 1.67826e-48 1.64891e-48 1.60677e-48 1.55173e-48 1.48418e-48 1.40506e-48 1.31577e-48 1.21813e-48 1.11431e-48 1.00667e-48 8.97654e-49 7.89701e-49 6.8508e-49 5.85798e-49 4.93512e-49 4.09465e-49 3.34461e-49 2.68866e-49 2.12646e-49 1.6542e-49 1.2654e-49 9.51663e-50 7.03523e-50 5.11152e-50 3.6496e-50 2.5605e-50 1.76506e-50 1.19544e-50 7.95466e-51 5.20041e-51 3.34027e-51 2.10798e-51 1.30711e-51 7.96423e-52 4.76859e-52 2.806e-52 1.62283e-52 9.22555e-53 5.15572e-53 2.83278e-53 1.53044e-53 8.13119e-54 4.24893e-54 2.18399e-54 1.10441e-54 5.49505e-55 2.69055e-55 1.29658e-55 6.15045e-56 2.87229e-56 1.32077e-56 5.9809e-57 2.66753e-57 1.17198e-57 5.07294e-58 2.16368e-58 9.0946e-59 3.76784e-59 1.5388e-59 6.19599e-60 2.45996e-60 9.62938e-61 3.7109e-61 1.39121e-61 4.60423e-62 0 
0 2.73741e-85 1.25191e-84 5.40979e-84 2.31096e-83 9.78047e-83 4.10112e-82 1.70369e-81 7.0112e-81 2.85807e-80 1.15398e-79 4.61463e-79 1.82747e-78 7.1665e-78 2.78271e-77 1.06979e-76 4.07156e-76 1.53397e-75 5.72044e-75 2.11135e-74 7.71203e-74 2.7875e-73 9.96919e-73 3.52745e-72 1.23474e-71 4.27526e-71 1.46413e-70 4.95883e-70 1.66081e-69 5.4999e-69 1.80069e-68 5.82807e-68 1.86451e-67 5.89535e-67 1.8421e-66 5.6875e-66 1.73495e-65 5.22826e-65 1.55625e-64 4.5751e-64 1.32821e-63 3.80737e-63 1.0775e-62 3.01014e-62 8.3e-62 2.25856e-61 6.06441e-61 1.60653e-60 4.19829e-60 1.08212e-59 2.75068e-59 6.89442e-59 1.70368e-58 4.14995e-58 9.96321e-58 2.35716e-57 5.49473e-57 1.26184e-56 2.85423e-56 6.35825e-56 1.39469e-55 3.01189e-55 6.40254e-55 1.33951e-54 2.75772e-54 5.58588e-54 1.11302e-53 2.18126e-53 4.20378e-53 7.96577e-53 1.48389e-52 2.71704e-52 4.8892e-52 8.645e-52 1.5018e-51 2.5628e-51 4.29549e-51 7.07049e-51 1.1428e-50 1.81351e-50 2.82524e-50 4.32046e-50 6.48497e-50 9.55333e-50 1.38117e-49 1.95957e-49 2.72829e-49 3.72764e-49 4.99804e-49 6.57671e-49 8.49371e-49 1.07675e-48 1.34009e-48 1.63773e-48 1.96586e-48 2.31851e-48 2.68774e-48 3.06409e-48 3.43722e-48 3.79678e-48 4.13326e-48 4.43884e-48 4.70812e-48 4.93853e-48 5.13053e-48 5.2874e-48 5.41474e-48 5.51976e-48 5.61037e-48 5.69432e-48 5.77835e-48 5.86755e-48 5.96503e-48 6.07174e-48 6.18674e-48 6.30753e-48 6.43067e-48 6.55235e-48 6.66905e-48 6.77794e-48 6.87726e-48 6.96645e-48 7.04601e-48 7.11734e-48 7.18239e-48 7.24323e-48 7.30169e-48 7.35903e-48 7.4157e-48 7.47123e-48 7.5242e-48 7.57238e-48 7.61287e-48 7.64239e-48 7.65756e-48 7.65519e-48 7.63255e-48 7.58765e-48 7.51943e-48 7.42788e-48 7.31412e-48 7.18038e-48 7.02993e-48 6.8669e-48 6.6961e-48 6.52276e-48 6.35228e-48 6.18991e-48 6.04051e-48 5.90828e-48 5.79649e-48 5.70737e-48 5.64193e-48 5.59999e-48 5.58022e-48 5.58029e-48 5.59717e-48 5.62739e-48 5.66737e-48 5.71377e-48 5.76372e-48 5.81499e-48 5.86605e-48 5.91605e-48 5.96465e-48 6.01185e-48 6.05777e-48 6.10247e-48 6.1459e-48 6.18781e-48 6.22786e-48 6.26581e-48 6.30164e-48 6.33581e-48 6.36936e-48 6.40395e-48 6.44173e-48 6.48515e-48 6.53655e-48 6.59781e-48 6.66982e-48 6.75217e-48 6.84283e-48 6.938e-48 7.03223e-48 7.11865e-48 7.18934e-48 7.23588e-48 7.24992e-48 7.22378e-48 7.15098e-48 7.0267e-48 6.84811e-48 6.6146e-48 6.32783e-48 5.99171e-48 5.61219e-48 5.19699e-48 4.75523e-48 4.29696e-48 3.83263e-48 3.37259e-48 2.92652e-48 2.50303e-48 2.1092e-48 1.75038e-48 1.43005e-48 1.1498e-48 9.09524e-49 7.07633e-49 5.41375e-49 4.07188e-49 3.01038e-49 2.18732e-49 1.56177e-49 1.09571e-49 7.55294e-50 5.1152e-50 3.40348e-50 2.22483e-50 1.42886e-50 9.01601e-51 5.58973e-51 3.40522e-51 2.03848e-51 1.19926e-51 6.93429e-52 3.9411e-52 2.20194e-52 1.20953e-52 6.53284e-53 3.4699e-53 1.81266e-53 9.31451e-54 4.70875e-54 2.34215e-54 1.14643e-54 5.52293e-55 2.61902e-55 1.22271e-55 5.62059e-56 2.54438e-56 1.13445e-56 4.98259e-57 2.15604e-57 9.19289e-58 3.86282e-58 1.59984e-58 6.53178e-59 2.62922e-59 1.04355e-59 4.08369e-60 1.57328e-60 5.89659e-61 1.95106e-61 0 
0 1.13714e-84 5.20082e-84 2.24753e-83 9.60164e-83 4.06391e-82 1.7042e-81 7.08015e-81 2.91394e-80 1.18795e-79 4.79696e-79 1.91843e-78 7.59811e-78 2.97995e-77 1.15723e-76 4.44939e-76 1.69362e-75 6.3816e-75 2.38013e-74 8.78604e-74 3.20971e-73 1.16032e-72 4.15042e-72 1.4688e-71 5.14225e-71 1.78081e-70 6.09975e-70 2.06631e-69 6.92183e-69 2.29268e-68 7.5079e-68 2.43051e-67 7.77739e-67 2.45968e-66 7.68748e-66 2.3741e-65 7.2439e-65 2.1835e-64 6.50116e-64 1.91174e-63 5.55158e-63 1.59183e-62 4.50625e-62 1.25926e-61 3.47327e-61 9.45425e-61 2.53935e-60 6.7292e-60 1.7591e-59 4.53567e-59 1.15333e-58 2.89177e-58 7.14836e-58 1.74188e-57 4.18344e-57 9.90112e-57 2.30889e-56 5.30425e-56 1.20026e-55 2.67481e-55 5.86949e-55 1.26804e-54 2.69659e-54 5.6439e-54 1.16239e-53 2.35541e-53 4.69511e-53 9.20494e-53 1.77468e-52 3.36415e-52 6.26924e-52 1.14834e-51 2.06715e-51 3.6564e-51 6.35407e-51 1.08468e-50 1.81863e-50 2.99446e-50 4.84138e-50 7.68504e-50 1.19756e-49 1.83183e-49 2.75021e-49 4.05235e-49 5.8598e-49 8.31523e-49 1.1579e-48 1.58223e-48 2.12168e-48 2.79205e-48 3.60607e-48 4.57156e-48 5.68961e-48 6.95309e-48 8.34575e-48 9.84209e-48 1.14082e-47 1.30039e-47 1.45852e-47 1.6108e-47 1.75319e-47 1.88238e-47 1.99608e-47 2.09322e-47 2.17401e-47 2.23984e-47 2.29312e-47 2.33691e-47 2.37459e-47 2.40944e-47 2.44435e-47 2.48147e-47 2.52212e-47 2.56672e-47 2.61485e-47 2.66547e-47 2.71711e-47 2.76818e-47 2.81717e-47 2.86288e-47 2.90458e-47 2.94201e-47 2.97539e-47 3.00532e-47 3.0326e-47 3.05812e-47 3.08265e-47 3.10672e-47 3.13053e-47 3.15387e-47 3.17614e-47 3.19642e-47 3.21348e-47 3.22593e-47 3.23236e-47 3.23142e-47 3.22196e-47 3.20314e-47 3.17451e-47 3.13607e-47 3.08828e-47 3.03209e-47 2.96887e-47 2.90035e-47 2.82855e-47 2.75569e-47 2.68402e-47 2.61577e-47 2.55298e-47 2.49741e-47 2.45045e-47 2.41302e-47 2.38556e-47 2.36798e-47 2.35972e-47 2.35981e-47 2.36695e-47 2.3797e-47 2.39653e-47 2.41605e-47 2.43704e-47 2.45857e-47 2.48e-47 2.50098e-47 2.52136e-47 2.54114e-47 2.56039e-47 2.57914e-47 2.59736e-47 2.61494e-47 2.63175e-47 2.64768e-47 2.66271e-47 2.67704e-47 2.69111e-47 2.70561e-47 2.72145e-47 2.73965e-47 2.76122e-47 2.78694e-47 2.8172e-47 2.85183e-47 2.88997e-47 2.93005e-47 2.96976e-47 3.00621e-47 3.03608e-47 3.0558e-47 3.06188e-47 3.05106e-47 3.0206e-47 2.96846e-47 2.89344e-47 2.79526e-47 2.6746e-47 2.53307e-47 2.37318e-47 2.19815e-47 2.01182e-47 1.81842e-47 1.62236e-47 1.428e-47 1.23946e-47 1.06037e-47 8.93748e-48 7.41873e-48 6.06232e-48 4.87521e-48 3.85709e-48 3.00135e-48 2.29647e-48 1.72742e-48 1.27719e-48 9.28039e-49 6.62642e-49 4.64894e-49 3.20451e-49 2.17011e-49 1.4438e-49 9.43704e-50 6.06001e-50 3.82326e-50 2.36994e-50 1.44348e-50 8.63942e-51 5.08153e-51 2.93752e-51 1.66912e-51 9.32313e-52 5.1198e-52 2.76449e-52 1.46792e-52 7.66604e-53 3.93804e-53 1.99016e-53 9.89598e-54 4.84229e-54 2.332e-54 1.10549e-54 5.15933e-55 2.37087e-55 1.0729e-55 4.7821e-56 2.09963e-56 9.08239e-57 3.87126e-57 1.62616e-57 6.73276e-58 2.74794e-58 1.10577e-58 4.38745e-59 1.7164e-59 6.61058e-60 2.47691e-60 8.19369e-61 0 
0 4.67946e-84 2.14031e-83 9.24994e-83 3.95194e-82 1.67279e-81 7.01537e-81 2.91481e-80 1.19974e-79 4.89154e-79 1.9754e-78 7.90098e-78 3.12959e-77 1.22755e-76 4.76763e-76 1.83332e-75 6.97928e-75 2.63016e-74 9.81105e-74 3.62219e-73 1.32346e-72 4.78511e-72 1.7119e-71 6.05932e-71 2.12173e-70 7.34911e-70 2.51775e-69 8.53063e-69 2.85822e-68 9.46912e-68 3.10155e-67 1.00428e-66 3.21434e-66 1.01681e-65 3.17872e-65 9.8192e-65 2.99683e-64 9.03565e-64 2.69101e-63 7.91546e-63 2.29926e-62 6.59473e-62 1.86744e-61 5.22012e-61 1.44026e-60 3.92167e-60 1.05368e-59 2.79317e-59 7.30421e-59 1.88398e-58 4.79229e-58 1.20202e-57 2.97245e-57 7.24584e-57 1.74088e-56 4.12179e-56 9.61556e-56 2.20987e-55 5.00255e-55 1.11527e-54 2.4483e-54 5.29141e-54 1.12572e-53 2.35708e-53 4.85652e-53 9.845e-53 1.96323e-52 3.85056e-52 7.42675e-52 1.4084e-51 2.62565e-51 4.81128e-51 8.6642e-51 1.53311e-50 2.6652e-50 4.55129e-50 7.63352e-50 1.25731e-49 2.03344e-49 3.22878e-49 5.03286e-49 7.70046e-49 1.15639e-48 1.70429e-48 2.46496e-48 3.49848e-48 4.87242e-48 6.65888e-48 8.93015e-48 1.17527e-47 1.518e-47 1.92448e-47 2.39514e-47 2.92694e-47 3.51298e-47 4.14247e-47 4.80111e-47 5.47186e-47 6.1362e-47 6.77555e-47 7.37289e-47 7.9143e-47 8.39016e-47 8.79603e-47 9.13284e-47 9.40656e-47 9.62734e-47 9.80817e-47 9.96329e-47 1.01066e-46 1.02502e-46 1.04031e-46 1.05711e-46 1.07557e-46 1.09553e-46 1.11655e-46 1.13802e-46 1.15926e-46 1.17964e-46 1.19866e-46 1.21601e-46 1.23158e-46 1.24546e-46 1.2579e-46 1.26924e-46 1.27985e-46 1.29006e-46 1.30007e-46 1.30998e-46 1.3197e-46 1.32899e-46 1.33745e-46 1.34457e-46 1.34978e-46 1.35248e-46 1.35212e-46 1.3482e-46 1.34038e-46 1.32847e-46 1.31247e-46 1.29258e-46 1.26918e-46 1.24284e-46 1.2143e-46 1.18438e-46 1.15403e-46 1.12417e-46 1.09573e-46 1.06957e-46 1.04643e-46 1.02687e-46 1.01129e-46 9.99869e-47 9.92566e-47 9.8915e-47 9.8921e-47 9.9221e-47 9.97537e-47 1.00456e-46 1.0127e-46 1.02145e-46 1.03041e-46 1.03932e-46 1.04804e-46 1.05651e-46 1.06473e-46 1.07273e-46 1.08052e-46 1.08809e-46 1.09541e-46 1.1024e-46 1.10902e-46 1.11527e-46 1.12123e-46 1.12708e-46 1.1331e-46 1.13968e-46 1.14724e-46 1.15621e-46 1.16692e-46 1.17952e-46 1.19395e-46 1.20986e-46 1.22659e-46 1.24318e-46 1.25843e-46 1.27094e-46 1.27923e-46 1.28184e-46 1.27741e-46 1.26479e-46 1.24312e-46 1.21189e-46 1.17098e-46 1.12066e-46 1.06159e-46 9.94825e-47 9.21692e-47 8.43791e-47 7.62887e-47 6.80823e-47 5.99429e-47 5.20427e-47 4.45348e-47 3.75463e-47 3.11735e-47 2.54794e-47 2.04942e-47 1.62171e-47 1.2621e-47 9.65811e-48 7.26563e-48 5.37231e-48 3.90383e-48 2.78747e-48 1.9556e-48 1.34794e-48 9.12779e-49 6.0723e-49 3.96856e-49 2.54807e-49 1.60733e-49 9.96165e-50 6.06623e-50 3.62994e-50 2.13456e-50 1.23364e-50 7.00777e-51 3.91322e-51 2.14833e-51 1.15967e-51 6.15584e-52 3.2138e-52 1.65039e-52 8.33782e-53 4.14454e-53 2.02732e-53 9.76001e-54 4.62516e-54 2.15781e-54 9.91233e-55 4.48413e-55 1.99795e-55 8.76916e-56 3.79197e-56 1.61572e-56 6.78466e-57 2.80809e-57 1.14572e-57 4.60884e-58 1.82809e-58 7.14928e-59 2.75263e-59 1.03107e-59 3.41001e-60 0 
0 1.90743e-83 8.72482e-83 3.77093e-82 1.61121e-81 6.82051e-81 2.86064e-80 1.18867e-79 4.89303e-79 1.99517e-78 8.05815e-78 3.22335e-77 1.27692e-76 5.0092e-76 1.94574e-75 7.48303e-75 2.84911e-74 1.07385e-73 4.00627e-73 1.47932e-72 5.40593e-72 1.9549e-71 6.99495e-71 2.47633e-70 8.67273e-70 3.00458e-69 1.02955e-68 3.48903e-68 1.16926e-67 3.87454e-67 1.26937e-66 4.11117e-66 1.31615e-65 4.1645e-65 1.30222e-64 4.02367e-64 1.22836e-63 3.70462e-63 1.10363e-62 3.24721e-62 9.43523e-62 2.70704e-61 7.66797e-61 2.14414e-60 5.91776e-60 1.61188e-59 4.33232e-59 1.14884e-58 3.00533e-58 7.75448e-58 1.97324e-57 4.95121e-57 1.22485e-56 2.98693e-56 7.17919e-56 1.70046e-55 3.96855e-55 9.12432e-55 2.06636e-54 4.60867e-54 1.01214e-53 2.18843e-53 4.65776e-53 9.75671e-53 2.01113e-52 4.07864e-52 8.13685e-52 1.59658e-51 3.0807e-51 5.84464e-51 1.09005e-50 1.99823e-50 3.59987e-50 6.37237e-50 1.10821e-49 1.89316e-49 3.17639e-49 5.2336e-49 8.46706e-49 1.34486e-48 2.09692e-48 3.20925e-48 4.82063e-48 7.10635e-48 1.02803e-47 1.45934e-47 2.0328e-47 2.7785e-47 3.72664e-47 4.90493e-47 6.33565e-47 8.03238e-47 9.99678e-47 1.2216e-46 1.46609e-46 1.72864e-46 2.00325e-46 2.28277e-46 2.55947e-46 2.82556e-46 3.07395e-46 3.29884e-46 3.49623e-46 3.66428e-46 3.80341e-46 3.91615e-46 4.00677e-46 4.0807e-46 4.14392e-46 4.20223e-46 4.26069e-46 4.32311e-46 4.39182e-46 4.46753e-46 4.54956e-46 4.63606e-46 4.72449e-46 4.81202e-46 4.89605e-46 4.97448e-46 5.04601e-46 5.11019e-46 5.16741e-46 5.21867e-46 5.2654e-46 5.30912e-46 5.35116e-46 5.39245e-46 5.43334e-46 5.47348e-46 5.51186e-46 5.54683e-46 5.57632e-46 5.59792e-46 5.60918e-46 5.60777e-46 5.5917e-46 5.55951e-46 5.51043e-46 5.44444e-46 5.36234e-46 5.26575e-46 5.15703e-46 5.03916e-46 4.91565e-46 4.79029e-46 4.66699e-46 4.54957e-46 4.44157e-46 4.34602e-46 4.2653e-46 4.20103e-46 4.15394e-46 4.12388e-46 4.10988e-46 4.11023e-46 4.12271e-46 4.14479e-46 4.17386e-46 4.20748e-46 4.24358e-46 4.28055e-46 4.31729e-46 4.35321e-46 4.38808e-46 4.42193e-46 4.45486e-46 4.48696e-46 4.51816e-46 4.5483e-46 4.57712e-46 4.60443e-46 4.63019e-46 4.65474e-46 4.67881e-46 4.7036e-46 4.73068e-46 4.76184e-46 4.7988e-46 4.84295e-46 4.89498e-46 4.95462e-46 5.0204e-46 5.08962e-46 5.15833e-46 5.22154e-46 5.2735e-46 5.30809e-46 5.31922e-46 5.30126e-46 5.24944e-46 5.1602e-46 5.03139e-46 4.86245e-46 4.65449e-46 4.41022e-46 4.13388e-46 3.83102e-46 3.50821e-46 3.17275e-46 2.83228e-46 2.4944e-46 2.16627e-46 1.85426e-46 1.5637e-46 1.29861e-46 1.06165e-46 8.54101e-47 6.75973e-47 5.26161e-47 4.02691e-47 3.02968e-47 2.24035e-47 1.62803e-47 1.16249e-47 8.15555e-48 5.62117e-48 3.8062e-48 2.53185e-48 1.65449e-48 1.06214e-48 6.69889e-49 4.15096e-49 2.52724e-49 1.51192e-49 8.88855e-50 5.13566e-50 2.91655e-50 1.62817e-50 8.93584e-51 4.82206e-51 2.55886e-51 1.33547e-51 6.85576e-52 3.46235e-52 1.72046e-52 8.41269e-53 4.04863e-53 1.91791e-53 8.94453e-54 4.10735e-54 1.8574e-54 8.27284e-55 3.6297e-55 1.56899e-55 6.68293e-56 2.80526e-56 1.16066e-56 4.73391e-57 1.90363e-57 7.54814e-58 2.95093e-58 1.1358e-58 4.25313e-59 1.40627e-59 0 