# vtk DataFile Version 3.0
Gray-Scott Simulation Output
ASCII
DATASET STRUCTURED_POINTS
DIMENSIONS 256 256 1
SPACING 1.0 1.0 1.0
ORIGIN 0 0 0
POINT_DATA 65536
SCALARS u double
LOOKUP_TABLE default
0 0 0 0 0 0 0 0 0 0 0 0 0 0 0 0 0 0 0 0 0 0 0 0 0 0 0 0 0 0 0 0 0 0 0 0 0 0 0 0 0 0 0 0 0 0 0 0 0 0 0 0 0 0 0 0 0 0 0 0 0 0 0 0 0 0 0 0 0 0 0 0 0 0 0 0 0 0 0 0 0 0 0 0 0 0 0 0 0 0 0 0 0 0 0 0 0 0 0 0 0 0 0 0 0 0 0 0 0 0 0 0 0 0 0 0 0 0 0 0 0 0 0 0 0 0 0 0 0 0 0 0 0 0 0 0 0 0 0 0 0 0 0 0 0 0 0 0 0 0 0 0 0 0 0 0 0 0 0 0 0 0 0 0 0 0 0 0 0 0 0 0 0 0 0 0 0 0 0 0 0 0 0 0 0 0 0 0 0 0 0 0 0 0 0 0 0 0 0 0 0 0 0 0 0 0 0 0 0 0 0 0 0 0 0 0 0 0 0 0 0 0 0 0 0 0 0 0 0 0 0 0 0 0 0 0 0 0 0 0 0 0 0 0 0 0 0 0 0 0 0 0 0 0 0 0 
0 9.03654e-155 1.24041e-153 1.67609e-152 2.24067e-151 2.96331e-150 3.87659e-149 5.01591e-148 6.41848e-147 8.12171e-146 1.01613e-144 1.25685e-143 1.53675e-142 1.85719e-141 2.21813e-140 2.61785e-139 3.05261e-138 3.51651e-137 4.00136e-136 4.49676e-135 4.9903e-134 5.468e-133 5.9148e-132 6.31533e-131 6.65474e-130 6.91953e-129 7.09843e-128 7.18317e-127 7.16911e-126 7.05561e-125 6.84614e-124 6.54817e-123 6.17271e-122 5.73362e-121 5.24679e-120 4.72914e-119 4.19762e-118 3.66828e-117 3.15548e-116 2.67123e-115 2.22484e-114 1.82274e-113 1.46852e-112 1.16319e-111 9.05578e-111 6.92764e-110 5.20602e-109 3.84205e-108 2.78371e-107 1.97951e-106 1.38109e-105 9.45088e-105 6.34105e-104 4.16998e-103 2.68677e-102 1.69545e-101 1.04743e-100 6.33249e-100 3.74495e-99 2.16545e-98 1.22372e-97 6.75523e-97 3.64087e-96 1.91493e-95 9.82317e-95 4.91196e-94 2.39282e-93 1.13489e-92 5.23726e-92 2.35005e-91 1.02464e-90 4.33783e-90 1.78176e-89 7.09513e-89 2.73681e-88 1.02171e-87 3.6882e-87 1.28616e-86 4.32857e-86 1.40446e-85 4.38861e-85 1.31919e-84 3.81019e-84 1.05613e-83 2.80595e-83 7.1363e-83 1.7351e-82 4.02765e-82 8.91387e-82 1.87837e-81 3.76379e-81 7.16213e-81 1.29277e-80 2.21109e-80 3.58033e-80 5.48541e-80 7.94963e-80 1.08994e-79 1.41474e-79 1.74077e-79 2.03466e-79 2.26565e-79 2.41268e-79 2.46882e-79 2.44162e-79 2.35005e-79 2.21968e-79 2.07824e-79 1.95233e-79 1.86539e-79 1.83596e-79 1.87572e-79 1.98733e-79 2.16286e-79 2.38376e-79 2.62335e-79 2.85152e-79 3.04085e-79 3.17219e-79 3.23819e-79 3.24388e-79 3.20419e-79 3.13974e-79 3.07213e-79 3.02002e-79 2.99644e-79 3.00755e-79 3.0526e-79 3.12506e-79 3.21486e-79 3.31137e-79 3.40609e-79 3.49408e-79 3.5734e-79 3.6428e-79 3.69903e-79 3.73524e-79 3.74179e-79 3.70919e-79 3.63192e-79 3.5112e-79 3.35537e-79 3.17775e-79 2.99283e-79 2.81267e-79 2.64452e-79 2.49055e-79 2.34938e-79 2.21883e-79 2.09897e-79 1.99407e-79 1.91261e-79 1.8649e-79 1.85905e-79 1.89693e-79 1.97202e-79 2.07028e-79 2.17387e-79 2.26604e-79 2.3352e-79 2.37667e-79 2.39206e-79 2.38718e-79 2.36988e-79 2.34878e-79 2.33288e-79 2.33111e-79 2.35124e-79 2.39774e-79 2.46945e-79 2.55824e-79 2.64981e-79 2.72668e-79 2.77261e-79 2.77691e-79 2.7376e-79 2.66245e-79 2.56792e-79 2.47619e-79 2.41108e-79 2.39366e-79 2.43844e-79 2.55072e-79 2.72542e-79 2.94752e-79 3.19387e-79 3.4365e-79 3.64698e-79 3.80124e-79 3.88352e-79 3.88829e-79 3.81931e-79 3.68618e-79 3.49998e-79 3.26983e-79 3.00184e-79 2.7006e-79 2.37197e-79 2.02545e-79 1.67468e-79 1.33589e-79 1.02498e-79 7.54573e-80 5.31948e-80 3.58549e-80 2.30796e-80 1.41755e-80 8.30314e-81 4.63687e-81 2.4688e-81 1.2535e-81 6.072e-82 2.80783e-82 1.24041e-82 5.23942e-83 2.11801e-83 8.20217e-84 3.04596e-84 1.08584e-84 3.71962e-85 1.22567e-85 3.88896e-86 1.18934e-86 3.50926e-87 9.99925e-88 2.75397e-88 7.3379e-89 1.89311e-89 4.73286e-90 1.14752e-90 2.70028e-91 6.17146e-92 1.37088e-92 2.96168e-93 6.22699e-94 1.27494e-94 2.54351e-95 4.94712e-96 9.38614e-97 1.73807e-97 3.14275e-98 5.55176e-99 9.58586e-100 1.61848e-100 2.67332e-101 4.32156e-102 6.83998e-103 1.06038e-103 1.61074e-104 2.39831e-105 3.50148e-106 5.01432e-107 7.04576e-108 9.71432e-109 1.29293e-109 0 
0 1.24058e-153 1.70199e-152 2.29854e-151 3.07113e-150 4.05942e-149 5.30765e-148 6.86389e-147 8.77847e-146 1.1102e-144 1.38826e-143 1.71622e-142 2.09731e-141 2.53328e-140 3.02402e-139 3.56708e-138 4.15729e-137 4.78654e-136 5.44364e-135 6.11439e-134 6.78194e-133 7.42725e-132 8.02996e-131 8.56928e-130 9.02514e-129 9.37939e-128 9.61693e-127 9.72674e-126 9.70273e-125 9.54422e-124 9.25615e-123 8.84879e-122 8.33719e-121 7.74022e-120 7.07945e-119 6.37778e-118 5.65813e-117 4.94215e-116 4.24916e-115 3.59529e-114 2.99301e-113 2.45087e-112 1.97362e-111 1.56251e-110 1.21587e-109 9.29687e-109 6.98311e-108 5.15108e-107 3.73038e-106 2.65143e-105 1.84901e-104 1.2647e-103 8.48152e-103 5.57501e-102 3.59039e-101 2.26463e-100 1.39843e-99 8.45073e-99 4.99541e-98 2.88723e-97 1.63088e-96 8.99892e-96 4.84805e-95 2.54876e-94 1.3069e-93 6.53224e-93 3.1808e-92 1.50799e-91 6.95621e-91 3.12012e-90 1.35985e-89 5.75469e-89 2.36282e-88 9.40535e-88 3.62657e-87 1.35337e-86 4.88368e-86 1.70245e-85 5.72758e-85 1.85776e-84 5.8031e-84 1.74381e-83 5.03503e-83 1.39521e-82 3.70574e-82 9.42204e-82 2.29023e-81 5.31487e-81 1.17598e-80 2.47752e-80 4.96325e-80 9.44275e-80 1.70412e-79 2.91418e-79 4.71817e-79 7.22786e-79 1.04739e-78 1.43594e-78 1.86378e-78 2.29327e-78 2.6805e-78 2.98495e-78 3.1789e-78 3.2532e-78 3.21779e-78 3.09758e-78 2.92624e-78 2.74026e-78 2.57466e-78 2.4603e-78 2.42159e-78 2.47389e-78 2.62072e-78 2.85164e-78 3.14225e-78 3.45746e-78 3.75769e-78 4.00684e-78 4.17973e-78 4.26671e-78 4.27436e-78 4.22231e-78 4.13768e-78 4.04889e-78 3.98046e-78 3.94952e-78 3.96417e-78 4.02342e-78 4.11869e-78 4.23675e-78 4.36363e-78 4.48814e-78 4.60381e-78 4.70808e-78 4.79931e-78 4.87321e-78 4.92079e-78 4.92939e-78 4.88652e-78 4.78491e-78 4.62616e-78 4.42122e-78 4.18755e-78 3.94422e-78 3.70708e-78 3.48568e-78 3.28288e-78 3.09687e-78 2.92483e-78 2.76685e-78 2.62857e-78 2.52116e-78 2.45821e-78 2.45042e-78 2.50026e-78 2.59914e-78 2.72861e-78 2.86515e-78 2.9867e-78 3.07795e-78 3.13273e-78 3.15316e-78 3.14685e-78 3.12414e-78 3.09641e-78 3.07548e-78 3.07314e-78 3.09961e-78 3.16078e-78 3.25513e-78 3.37196e-78 3.49247e-78 3.59367e-78 3.65417e-78 3.65992e-78 3.6083e-78 3.50954e-78 3.38527e-78 3.26465e-78 3.17903e-78 3.15614e-78 3.21504e-78 3.36269e-78 3.59245e-78 3.88451e-78 4.20846e-78 4.5275e-78 4.80428e-78 5.00713e-78 5.11535e-78 5.12166e-78 5.03094e-78 4.85582e-78 4.61082e-78 4.3079e-78 3.95509e-78 3.55842e-78 3.12561e-78 2.66917e-78 2.20708e-78 1.76073e-78 1.35108e-78 9.94738e-79 7.01333e-79 4.72777e-79 3.04363e-79 1.86967e-79 1.0953e-79 6.11767e-80 3.25779e-80 1.65441e-80 8.01563e-81 3.7074e-81 1.63818e-81 6.92122e-82 2.79857e-82 1.08405e-82 4.02683e-83 1.43591e-83 4.92026e-84 1.62179e-84 5.14742e-85 1.57472e-85 4.64786e-86 1.3248e-86 3.65e-87 9.7288e-88 2.51084e-88 6.27951e-89 1.52308e-89 3.58539e-90 8.19752e-91 1.82165e-91 3.93707e-92 8.28108e-93 1.69619e-93 3.38528e-94 6.58711e-95 1.25029e-95 2.31619e-96 4.1899e-97 7.40476e-98 1.27909e-98 2.16057e-99 3.57028e-100 5.77413e-101 9.14314e-102 1.41807e-102 2.15507e-103 3.21025e-104 4.68905e-105 6.71811e-106 9.44422e-107 1.30273e-107 1.73466e-108 0 
0 1.67656e-152 2.29887e-151 3.10293e-150 4.14363e-149 5.47407e-148 7.15342e-147 9.24582e-146 1.18184e-144 1.49385e-143 1.86699e-142 2.30681e-141 2.81752e-140 3.40139e-139 4.05812e-138 4.78432e-137 5.57297e-136 6.41309e-135 7.28962e-134 8.1835e-133 9.07215e-132 9.93016e-131 1.07303e-129 1.1445e-128 1.20476e-127 1.25139e-126 1.28242e-125 1.29639e-124 1.29252e-123 1.27075e-122 1.23176e-121 1.17695e-120 1.10834e-119 1.02845e-118 9.40178e-118 8.46565e-117 7.50663e-116 6.55345e-115 5.6317e-114 4.76271e-113 3.96289e-112 3.24347e-111 2.61058e-110 2.06579e-109 1.60671e-108 1.22794e-107 9.21887e-107 6.797e-106 4.92e-105 3.4953e-104 2.43634e-103 1.66564e-102 1.11651e-101 7.33556e-101 4.72203e-100 2.97704e-99 1.83751e-98 1.1099e-97 6.55794e-97 3.78863e-96 2.13911e-95 1.1798e-94 6.35326e-94 3.33865e-93 1.71119e-92 8.54936e-92 4.16126e-91 1.972e-90 9.09292e-90 4.07686e-89 1.77612e-88 7.51331e-88 3.08369e-87 1.22701e-86 4.7294e-86 1.76428e-85 6.36412e-85 2.21774e-84 7.45858e-84 2.41838e-83 7.55184e-83 2.26857e-82 6.54812e-82 1.81394e-81 4.81647e-81 1.22427e-80 2.97503e-80 6.90231e-80 1.52685e-79 3.21598e-79 6.44125e-79 1.22523e-78 2.21076e-78 3.77997e-78 6.1191e-78 9.37292e-78 1.35811e-77 1.86182e-77 2.41646e-77 2.97328e-77 3.47541e-77 3.87034e-77 4.12215e-77 4.21895e-77 4.17358e-77 4.0183e-77 3.7967e-77 3.55603e-77 3.3417e-77 3.19366e-77 3.14354e-77 3.21125e-77 3.40134e-77 3.7003e-77 4.07655e-77 4.48467e-77 4.87343e-77 5.1961e-77 5.42007e-77 5.53287e-77 5.54299e-77 5.47584e-77 5.36649e-77 5.25174e-77 5.16329e-77 5.12334e-77 5.14235e-77 5.21905e-77 5.34232e-77 5.49507e-77 5.65921e-77 5.82029e-77 5.96993e-77 6.10481e-77 6.22282e-77 6.31841e-77 6.37994e-77 6.39104e-77 6.33556e-77 6.20409e-77 5.99864e-77 5.73338e-77 5.43087e-77 5.11577e-77 4.80858e-77 4.52168e-77 4.2588e-77 4.01761e-77 3.79449e-77 3.58956e-77 3.41016e-77 3.27077e-77 3.18903e-77 3.17881e-77 3.24334e-77 3.37151e-77 3.53939e-77 3.71651e-77 3.87426e-77 3.99276e-77 4.064e-77 4.09067e-77 4.08264e-77 4.05332e-77 4.01744e-77 3.99033e-77 3.98728e-77 4.02154e-77 4.10073e-77 4.22289e-77 4.37418e-77 4.53027e-77 4.66138e-77 4.73982e-77 4.74739e-77 4.68068e-77 4.55294e-77 4.39215e-77 4.23609e-77 4.1253e-77 4.09568e-77 4.17192e-77 4.36302e-77 4.66035e-77 5.03832e-77 5.45754e-77 5.87041e-77 6.22858e-77 6.4911e-77 6.63117e-77 6.63936e-77 6.52196e-77 6.29526e-77 5.97801e-77 5.58564e-77 5.12853e-77 4.61447e-77 4.05349e-77 3.46179e-77 2.86271e-77 2.28396e-77 1.75274e-77 1.2906e-77 9.10033e-78 6.13538e-78 3.95034e-78 2.42699e-78 1.42201e-78 7.94378e-79 4.23096e-79 2.14903e-79 1.04141e-79 4.81778e-80 2.1293e-80 8.9983e-81 3.63934e-81 1.4101e-81 5.23938e-82 1.86881e-82 6.40551e-83 2.11199e-83 6.70536e-84 2.05198e-84 6.05854e-85 1.72748e-85 4.76106e-86 1.26947e-86 3.27746e-87 8.19981e-88 1.98958e-88 4.68533e-89 1.07165e-89 2.38235e-90 5.15093e-91 1.08386e-91 2.22095e-92 4.43442e-93 8.63211e-94 1.63914e-94 3.03783e-95 5.49768e-96 9.72019e-97 1.67979e-97 2.83866e-98 4.69289e-99 7.59309e-100 1.20288e-100 1.86649e-101 2.83782e-102 4.22925e-103 6.18032e-104 8.85883e-105 1.24594e-105 1.71946e-106 2.29061e-107 0 
0 2.24162e-151 3.07201e-150 4.14423e-149 5.53118e-148 7.30315e-147 9.53846e-146 1.23218e-144 1.57418e-143 1.9887e-142 2.4841e-141 3.06765e-140 3.7448e-139 4.5184e-138 5.38793e-137 6.34872e-136 7.39131e-135 8.50104e-134 9.65783e-133 1.08364e-131 1.20068e-130 1.31354e-129 1.41865e-128 1.51234e-127 1.59113e-126 1.65187e-125 1.69194e-124 1.70949e-123 1.70351e-122 1.67396e-121 1.62177e-120 1.54881e-119 1.45777e-118 1.35202e-117 1.23534e-116 1.11178e-115 9.85339e-115 8.59791e-114 7.38492e-113 6.2423e-112 5.19144e-111 4.24689e-110 3.41654e-109 2.70222e-108 2.10069e-107 1.60469e-106 1.20416e-105 8.8739e-105 6.42029e-104 4.55899e-103 3.17626e-102 2.17048e-101 1.45424e-100 9.55001e-100 6.14468e-99 3.87219e-98 2.38894e-97 1.44233e-96 8.51827e-96 4.91896e-95 2.77608e-94 1.53045e-93 8.23792e-93 4.32718e-92 2.21691e-91 1.10714e-90 5.38656e-90 2.55161e-89 1.17607e-88 5.27087e-88 2.2954e-87 9.70612e-87 3.98215e-86 1.58391e-85 6.10276e-85 2.27577e-84 8.20621e-84 2.85866e-83 9.61074e-83 3.11515e-82 9.72442e-82 2.92027e-81 8.42662e-81 2.33362e-80 6.19455e-80 1.57411e-79 3.82415e-79 8.87007e-79 1.96166e-78 4.13089e-78 8.27197e-78 1.57316e-77 2.83806e-77 4.85179e-77 7.85313e-77 1.20277e-76 1.74263e-76 2.38881e-76 3.10033e-76 3.81472e-76 4.45905e-76 4.96603e-76 5.28955e-76 5.41436e-76 5.35686e-76 5.15838e-76 4.87477e-76 4.56661e-76 4.2921e-76 4.10247e-76 4.03825e-76 4.12498e-76 4.36851e-76 4.7515e-76 5.23354e-76 5.75643e-76 6.25455e-76 6.66807e-76 6.9552e-76 7.09995e-76 7.11319e-76 7.02745e-76 6.88765e-76 6.74089e-76 6.62778e-76 6.57673e-76 6.60115e-76 6.69938e-76 6.85722e-76 7.05278e-76 7.2629e-76 7.46911e-76 7.66066e-76 7.83332e-76 7.98438e-76 8.10672e-76 8.18546e-76 8.19965e-76 8.1286e-76 7.96025e-76 7.69717e-76 7.35743e-76 6.96989e-76 6.56612e-76 6.17235e-76 5.80447e-76 5.46726e-76 5.1578e-76 4.87144e-76 4.60839e-76 4.37807e-76 4.19908e-76 4.09404e-76 4.08077e-76 4.16345e-76 4.32783e-76 4.54326e-76 4.77063e-76 4.97322e-76 5.12551e-76 5.21718e-76 5.25164e-76 5.24155e-76 5.20407e-76 5.15813e-76 5.1234e-76 5.11946e-76 5.16332e-76 5.26477e-76 5.42129e-76 5.61516e-76 5.8152e-76 5.98329e-76 6.08392e-76 6.09378e-76 6.00849e-76 5.845e-76 5.63915e-76 5.43932e-76 5.29746e-76 5.25954e-76 5.35719e-76 5.60193e-76 5.98271e-76 6.46673e-76 7.00355e-76 7.53224e-76 7.99089e-76 8.32707e-76 8.50647e-76 8.51699e-76 8.36666e-76 8.07625e-76 7.66973e-76 7.16682e-76 6.58076e-76 5.92154e-76 5.20202e-76 4.443e-76 3.67441e-76 2.93182e-76 2.25013e-76 1.65702e-76 1.16854e-76 7.87917e-77 5.07377e-77 3.11763e-77 1.82694e-77 1.02075e-77 5.4376e-78 2.76242e-78 1.33893e-78 6.19543e-79 2.73878e-79 1.15766e-79 4.68329e-80 1.81505e-80 6.74584e-81 2.40681e-81 8.25194e-82 2.7216e-82 8.64345e-83 2.64592e-83 7.81468e-84 2.22895e-84 6.14524e-85 1.63911e-85 4.2333e-86 1.0595e-86 2.5717e-87 6.05845e-88 1.38625e-88 3.08291e-89 6.66824e-90 1.40369e-90 2.87748e-91 5.74761e-92 1.1193e-92 2.12631e-93 3.94237e-94 7.1377e-95 1.26253e-95 2.18277e-96 3.69026e-97 6.10346e-98 9.8798e-99 1.56584e-99 2.43078e-100 3.69746e-101 5.51291e-102 8.05989e-103 1.15583e-103 1.62638e-104 2.24553e-105 2.99279e-106 0 
0 2.965e-150 4.06118e-149 5.47567e-148 7.30423e-147 9.639e-146 1.25824e-144 1.62453e-143 2.0743e-142 2.6191e-141 3.26979e-140 4.03574e-139 4.92395e-138 5.93797e-137 7.07692e-136 8.33446e-135 9.69801e-134 1.11482e-132 1.26585e-131 1.41957e-130 1.57207e-129 1.71895e-128 1.85551e-127 1.97703e-126 2.07895e-125 2.15719e-124 2.20838e-123 2.23013e-122 2.22119e-121 2.18154e-120 2.11244e-119 2.01638e-118 1.8969e-117 1.75839e-116 1.60584e-115 1.44449e-114 1.27957e-113 1.11598e-112 9.58057e-112 8.09423e-111 6.72829e-110 5.50141e-109 4.42361e-108 3.49704e-107 2.71726e-106 2.07467e-105 1.55609e-104 1.14619e-103 8.28879e-103 5.88302e-102 4.0968e-101 2.79821e-100 1.87396e-99 1.23006e-98 7.91085e-98 4.98291e-97 3.0728e-96 1.85438e-95 1.09469e-94 6.31864e-94 3.56444e-93 1.96422e-92 1.05682e-91 5.54887e-91 2.8416e-90 1.41852e-89 6.89868e-89 3.26657e-88 1.505e-87 6.74235e-87 2.93505e-86 1.24061e-85 5.08794e-85 2.02298e-84 7.79159e-84 2.90449e-83 1.04696e-82 3.64585e-82 1.22531e-81 3.97029e-81 1.23898e-80 3.71953e-80 1.07296e-79 2.97052e-79 7.88293e-79 2.0026e-78 4.86385e-78 1.12788e-77 2.49378e-77 5.25025e-77 1.05113e-76 1.99866e-76 3.60506e-76 6.16209e-76 9.97268e-76 1.52723e-75 2.21254e-75 3.03279e-75 3.93601e-75 4.84294e-75 5.66109e-75 6.30507e-75 6.71638e-75 6.87562e-75 6.80355e-75 6.55252e-75 6.19339e-75 5.80296e-75 5.45506e-75 5.2147e-75 5.13329e-75 5.24322e-75 5.55191e-75 6.0374e-75 6.64847e-75 7.31135e-75 7.94289e-75 8.46725e-75 8.83147e-75 9.01527e-75 9.03241e-75 8.9241e-75 8.74726e-75 8.56153e-75 8.41841e-75 8.35388e-75 8.38491e-75 8.5094e-75 8.70936e-75 8.95709e-75 9.22325e-75 9.48445e-75 9.72707e-75 9.94576e-75 1.01371e-74 1.0292e-74 1.03917e-74 1.04097e-74 1.03196e-74 1.01063e-74 9.77299e-75 9.34244e-75 8.85121e-75 8.33926e-75 7.83982e-75 7.37305e-75 6.94507e-75 6.55217e-75 6.18852e-75 5.85441e-75 5.56181e-75 5.33437e-75 5.20081e-75 5.18377e-75 5.28857e-75 5.4972e-75 5.77073e-75 6.05956e-75 6.31701e-75 6.51067e-75 6.62738e-75 6.67145e-75 6.65889e-75 6.6115e-75 6.5533e-75 6.50926e-75 6.50424e-75 6.55981e-75 6.6884e-75 6.88682e-75 7.13264e-75 7.38633e-75 7.59955e-75 7.7273e-75 7.74e-75 7.6321e-75 7.42505e-75 7.16429e-75 6.91112e-75 6.73139e-75 6.68336e-75 6.80711e-75 7.11724e-75 7.59974e-75 8.21304e-75 8.89324e-75 9.5631e-75 1.01442e-74 1.05702e-74 1.07976e-74 1.08109e-74 1.06204e-74 1.02523e-74 9.73692e-75 9.0991e-75 8.35562e-75 7.51914e-75 6.60596e-75 5.64252e-75 4.66681e-75 3.72399e-75 2.8584e-75 2.10518e-75 1.48475e-75 1.00125e-75 6.4484e-76 3.96284e-76 2.32259e-76 1.29789e-76 6.91511e-77 3.51367e-77 1.70338e-77 7.88344e-78 3.48575e-78 1.47374e-78 5.96341e-79 2.31176e-79 8.59417e-80 3.06711e-80 1.05188e-80 3.47026e-81 1.10244e-81 3.37583e-82 9.97367e-83 2.84569e-83 7.84823e-84 2.09407e-84 5.4102e-85 1.35454e-85 3.28904e-86 7.75125e-87 1.77425e-87 3.9473e-88 8.54122e-89 1.79867e-89 3.68863e-90 7.37083e-91 1.436e-91 2.72906e-92 5.06205e-93 9.16875e-94 1.62247e-94 2.80629e-95 4.74647e-96 7.85381e-97 1.27187e-97 2.01668e-98 3.13206e-99 4.76635e-100 7.10985e-101 1.03994e-101 1.49202e-102 2.10041e-103 2.90137e-104 3.86864e-105 0 
0 3.87938e-149 5.31075e-148 7.15658e-147 9.54129e-146 1.25843e-144 1.64183e-143 2.11863e-142 2.70376e-141 3.41204e-140 4.25744e-139 5.25195e-138 6.40441e-137 7.7192e-136 9.1949e-135 1.08231e-133 1.25871e-132 1.44616e-131 1.64122e-130 1.83956e-129 2.03611e-128 2.22517e-127 2.40071e-126 2.5566e-125 2.687e-124 2.78668e-123 2.85134e-122 2.87794e-121 2.86493e-120 2.81235e-119 2.72188e-118 2.59678e-117 2.44167e-116 2.26225e-115 2.06495e-114 1.85654e-113 1.64375e-112 1.43288e-111 1.22951e-110 1.03825e-109 8.62616e-109 7.04977e-108 5.66586e-107 4.47691e-106 3.47696e-105 2.65344e-104 1.98923e-103 1.46455e-102 1.0586e-101 7.50993e-101 5.2273e-100 3.56871e-99 2.38886e-98 1.56732e-97 1.00753e-96 6.34336e-96 3.90999e-95 2.35856e-94 1.39171e-93 8.02949e-93 4.52759e-92 2.49389e-91 1.34123e-90 7.0392e-90 3.6033e-89 1.79801e-88 8.74068e-88 4.13709e-87 1.90531e-86 8.53237e-86 3.71283e-85 1.56876e-84 6.43132e-84 2.55616e-83 9.84155e-83 3.66734e-82 1.32148e-81 4.6002e-81 1.54553e-80 5.00625e-80 1.56177e-79 4.68709e-79 1.35166e-78 3.74101e-78 9.9248e-78 2.52064e-77 6.12046e-77 1.41893e-76 3.13657e-76 6.6021e-76 1.32151e-75 2.5123e-75 4.53079e-75 7.74327e-75 1.25301e-74 1.91867e-74 2.77941e-74 3.8096e-74 4.94402e-74 6.08321e-74 7.11108e-74 7.92044e-74 8.43785e-74 8.63889e-74 8.54953e-74 8.23544e-74 7.7855e-74 7.29609e-74 6.85988e-74 6.55845e-74 6.45633e-74 6.59418e-74 6.98131e-74 7.59018e-74 8.35659e-74 9.18803e-74 9.98022e-74 1.06381e-73 1.10952e-73 1.13261e-73 1.1348e-73 1.12127e-73 1.09913e-73 1.07588e-73 1.05797e-73 1.04989e-73 1.05379e-73 1.0694e-73 1.09447e-73 1.12552e-73 1.15887e-73 1.1916e-73 1.22201e-73 1.24941e-73 1.27339e-73 1.2928e-73 1.30529e-73 1.30753e-73 1.29625e-73 1.26951e-73 1.22773e-73 1.17374e-73 1.11214e-73 1.04791e-73 9.8524e-74 9.26645e-74 8.729e-74 8.23547e-74 7.77856e-74 7.35869e-74 6.99092e-74 6.70497e-74 6.53693e-74 6.51528e-74 6.64673e-74 6.90871e-74 7.25234e-74 7.61534e-74 7.93905e-74 8.18272e-74 8.32975e-74 8.3855e-74 8.37005e-74 8.31076e-74 8.23781e-74 8.18255e-74 8.1762e-74 8.24585e-74 8.40711e-74 8.65599e-74 8.96437e-74 9.28268e-74 9.55029e-74 9.71075e-74 9.72693e-74 9.59187e-74 9.33245e-74 9.00564e-74 8.6883e-74 8.46301e-74 8.40282e-74 8.55798e-74 8.94681e-74 9.55171e-74 1.03206e-73 1.11733e-73 1.2013e-73 1.27415e-73 1.32755e-73 1.35605e-73 1.35773e-73 1.33385e-73 1.28769e-73 1.22304e-73 1.143e-73 1.04969e-73 9.44669e-74 8.30003e-74 7.09007e-74 5.86454e-74 4.68019e-74 3.59269e-74 2.64627e-74 1.86659e-74 1.25891e-74 8.10883e-75 4.98395e-75 2.92149e-75 1.63282e-75 8.70107e-76 4.42193e-76 2.14411e-76 9.92519e-77 4.38947e-77 1.85625e-77 7.51297e-78 2.91318e-78 1.08328e-78 3.86708e-79 1.32661e-79 4.37788e-80 1.39119e-80 4.26133e-81 1.25938e-81 3.59443e-82 9.91652e-83 2.64683e-83 6.84067e-84 1.71329e-84 4.16164e-85 9.81131e-86 2.24663e-86 5.00014e-87 1.08235e-87 2.28019e-88 4.67796e-89 9.35151e-90 1.82261e-90 3.46524e-91 6.43022e-92 1.16518e-92 2.06274e-93 3.56931e-94 6.03963e-95 9.99792e-96 1.61981e-96 2.56951e-97 3.99243e-98 6.07837e-99 9.07109e-100 1.32741e-100 1.90534e-101 2.6835e-102 3.70854e-103 4.94714e-104 0 
0 5.0203e-148 6.86894e-147 9.25132e-146 1.23274e-144 1.62502e-143 2.11896e-142 2.73286e-141 3.48574e-140 4.39652e-139 5.48291e-138 6.76007e-137 8.23907e-136 9.92522e-135 1.18164e-133 1.39014e-132 1.61586e-131 1.85552e-130 2.10469e-129 2.3578e-128 2.60836e-127 2.84907e-126 3.07223e-125 3.27003e-124 3.43504e-123 3.56063e-122 3.64137e-121 3.67346e-120 3.65498e-119 3.58607e-118 3.46895e-117 3.30784e-116 3.10869e-115 2.8788e-114 2.62641e-113 2.36016e-112 2.08861e-111 1.81977e-110 1.56071e-109 1.31728e-108 1.09391e-107 8.93567e-107 7.17806e-106 5.66905e-105 4.40071e-104 3.35679e-103 2.51533e-102 1.851e-101 1.3373e-100 9.48269e-100 6.59737e-99 4.50198e-98 3.01219e-97 1.97539e-96 1.26927e-95 7.9877e-95 4.92135e-94 2.96731e-93 1.75014e-92 1.00931e-91 5.68872e-91 3.13213e-90 1.68377e-89 8.83321e-89 4.51975e-88 2.25439e-87 1.09548e-86 5.18299e-86 2.38605e-85 1.0681e-84 4.64601e-84 1.96231e-83 8.04169e-83 3.19504e-82 1.22969e-81 4.58066e-81 1.65e-80 5.74189e-80 1.92846e-79 6.24459e-79 1.94747e-78 5.84284e-78 1.68446e-77 4.66074e-77 1.23614e-76 3.13864e-76 7.61911e-76 1.76594e-75 3.90275e-75 8.21307e-75 1.64365e-74 3.12414e-74 5.63328e-74 9.62609e-74 1.55749e-73 2.38467e-73 3.45419e-73 4.73423e-73 6.14382e-73 7.55948e-73 8.83703e-73 9.84341e-73 1.04874e-72 1.07385e-72 1.06289e-72 1.02401e-72 9.68247e-73 9.07557e-73 8.53448e-73 8.16051e-73 8.03379e-73 8.20479e-73 8.68508e-73 9.44052e-73 1.03914e-72 1.14231e-72 1.24062e-72 1.32227e-72 1.37902e-72 1.40772e-72 1.4105e-72 1.39376e-72 1.36636e-72 1.33756e-72 1.31537e-72 1.30538e-72 1.31024e-72 1.3296e-72 1.36068e-72 1.39918e-72 1.44053e-72 1.48111e-72 1.5188e-72 1.55278e-72 1.58249e-72 1.60655e-72 1.62204e-72 1.62481e-72 1.61082e-72 1.57767e-72 1.52584e-72 1.45888e-72 1.38245e-72 1.30275e-72 1.22494e-72 1.15217e-72 1.08541e-72 1.02408e-72 9.67282e-73 9.15082e-73 8.6935e-73 8.33782e-73 8.12866e-73 8.10144e-73 8.26456e-73 8.59e-73 9.0171e-73 9.46844e-73 9.87112e-73 1.01744e-72 1.03577e-72 1.04275e-72 1.04087e-72 1.03353e-72 1.02448e-72 1.01762e-72 1.01683e-72 1.02546e-72 1.04547e-72 1.07635e-72 1.11462e-72 1.15414e-72 1.18736e-72 1.2073e-72 1.20934e-72 1.19262e-72 1.16046e-72 1.11994e-72 1.08059e-72 1.05265e-72 1.04519e-72 1.06444e-72 1.11266e-72 1.18769e-72 1.28304e-72 1.38879e-72 1.49292e-72 1.58326e-72 1.64949e-72 1.68485e-72 1.68694e-72 1.65732e-72 1.60005e-72 1.51982e-72 1.42047e-72 1.30459e-72 1.17416e-72 1.03172e-72 8.81387e-73 7.29101e-73 5.81912e-73 4.46744e-73 3.29094e-73 2.32159e-73 1.56597e-73 1.0088e-73 6.2013e-74 3.63561e-74 2.03226e-74 1.08314e-74 5.50558e-75 2.67005e-75 1.23623e-75 5.46843e-76 2.31304e-76 9.36397e-77 3.63179e-77 1.35085e-77 4.82351e-78 1.65516e-78 5.46369e-79 1.73675e-79 5.32142e-80 1.57316e-80 4.49144e-81 1.23953e-81 3.30956e-82 8.55641e-83 2.14376e-83 5.20912e-84 1.22852e-84 2.81416e-85 6.26561e-86 1.3568e-86 2.85947e-87 5.86868e-88 1.17365e-88 2.28837e-89 4.35253e-90 8.08003e-91 1.46474e-91 2.59415e-92 4.49076e-93 7.60207e-94 1.25898e-94 2.04063e-95 3.23848e-96 5.03408e-97 7.6677e-98 1.14481e-98 1.67601e-99 2.40681e-100 3.39133e-101 4.68892e-102 6.25777e-103 0 
0 6.4251e-147 8.78631e-146 1.18273e-144 1.57513e-143 2.07525e-142 2.70459e-141 3.48628e-140 4.44435e-139 5.60261e-138 6.98329e-137 8.60535e-136 1.04825e-134 1.26211e-133 1.5018e-132 1.76585e-131 2.0515e-130 2.35454e-129 2.66931e-128 2.98877e-127 3.30465e-126 3.60774e-125 3.8883e-124 4.13651e-123 4.343e-122 4.49946e-121 4.59913e-120 4.63729e-119 4.61161e-118 4.52236e-117 4.37245e-116 4.16727e-115 3.91441e-114 3.62312e-113 3.30382e-112 2.96742e-111 2.62469e-110 2.28572e-109 1.95937e-108 1.65295e-107 1.37199e-106 1.12017e-105 8.99405e-105 7.09986e-104 5.50876e-103 4.2e-102 3.14567e-101 2.31377e-100 1.67086e-99 1.18424e-98 8.23527e-98 5.61709e-97 3.75658e-96 2.46244e-95 1.58151e-94 9.94819e-94 6.12651e-93 3.69233e-92 2.17681e-91 1.25483e-90 7.0695e-90 3.89071e-89 2.09068e-88 1.09634e-87 5.60739e-87 2.79574e-86 1.358e-85 6.42246e-85 2.95549e-84 1.3225e-83 5.75038e-83 2.42785e-82 9.94581e-82 3.95012e-81 1.51976e-80 5.6592e-80 2.03781e-79 7.08903e-79 2.38012e-78 7.70468e-78 2.40207e-77 7.20457e-77 2.07643e-76 5.74366e-76 1.52294e-75 3.86583e-75 9.38203e-75 2.17403e-74 4.80356e-74 1.01067e-73 2.02221e-73 3.843e-73 6.9284e-73 1.18375e-72 1.91506e-72 2.93186e-72 4.24647e-72 5.81982e-72 7.55246e-72 9.29271e-72 1.08635e-71 1.21014e-71 1.28942e-71 1.32045e-71 1.30717e-71 1.25957e-71 1.1912e-71 1.11675e-71 1.05036e-71 1.00447e-71 9.88911e-72 1.00989e-71 1.06883e-71 1.16155e-71 1.27826e-71 1.40489e-71 1.52556e-71 1.62581e-71 1.69551e-71 1.73079e-71 1.73427e-71 1.71381e-71 1.68024e-71 1.64496e-71 1.61778e-71 1.60556e-71 1.61152e-71 1.63529e-71 1.67341e-71 1.72062e-71 1.77133e-71 1.8211e-71 1.86732e-71 1.90898e-71 1.94542e-71 1.97492e-71 1.9939e-71 1.9973e-71 1.98014e-71 1.93947e-71 1.87589e-71 1.79374e-71 1.69993e-71 1.60209e-71 1.50655e-71 1.41716e-71 1.33511e-71 1.25972e-71 1.18988e-71 1.12569e-71 1.06943e-71 1.02567e-71 9.99916e-72 9.9653e-72 1.01655e-71 1.05655e-71 1.10906e-71 1.16457e-71 1.21412e-71 1.25147e-71 1.27406e-71 1.2827e-71 1.28044e-71 1.27146e-71 1.26036e-71 1.25194e-71 1.25095e-71 1.26155e-71 1.2861e-71 1.324e-71 1.37099e-71 1.4195e-71 1.46031e-71 1.48482e-71 1.48736e-71 1.46688e-71 1.42746e-71 1.37776e-71 1.32949e-71 1.29522e-71 1.28607e-71 1.30969e-71 1.36885e-71 1.46089e-71 1.57787e-71 1.70759e-71 1.83533e-71 1.94616e-71 2.0274e-71 2.07078e-71 2.07336e-71 2.03702e-71 1.96674e-71 1.86824e-71 1.74625e-71 1.60392e-71 1.44367e-71 1.26863e-71 1.08387e-71 8.9668e-72 7.1573e-72 5.49535e-72 4.0486e-72 2.85642e-72 1.92697e-72 1.24152e-72 7.63292e-73 4.47558e-73 2.50217e-73 1.33382e-73 6.78093e-74 3.28916e-74 1.52317e-74 6.73913e-75 2.85114e-75 1.1545e-75 4.47878e-76 1.6663e-76 5.95146e-77 2.04277e-77 6.74506e-78 2.14468e-78 6.57328e-79 1.94385e-79 5.5515e-80 1.53258e-80 4.09335e-81 1.05864e-81 2.65327e-82 6.44945e-83 1.52159e-83 3.48676e-84 7.76599e-85 1.68234e-85 3.5469e-86 7.28238e-87 1.45694e-87 2.84186e-88 5.40746e-89 1.00425e-89 1.82125e-90 3.22689e-91 5.58847e-92 9.46432e-93 1.56806e-93 2.54271e-94 4.03705e-95 6.27819e-96 9.56692e-97 1.42901e-97 2.09302e-98 3.00702e-99 4.23901e-100 5.86363e-101 7.82903e-102 0 
0 8.13137e-146 1.11137e-144 1.49521e-143 1.99022e-142 2.62072e-141 3.41364e-140 4.3979e-139 5.60349e-138 7.06007e-137 8.79524e-136 1.08324e-134 1.31884e-133 1.58706e-132 1.88746e-131 2.21816e-130 2.57562e-129 2.95453e-128 3.34776e-127 3.74646e-126 4.14026e-125 4.51765e-124 4.86645e-123 5.17441e-122 5.42993e-121 5.62266e-120 5.74427e-119 5.78898e-118 5.75399e-117 5.63977e-116 5.45006e-115 5.19171e-114 4.87423e-113 4.50926e-112 4.10982e-111 3.68952e-110 3.26178e-109 2.83913e-108 2.43258e-107 2.05115e-106 1.70168e-105 1.38868e-104 1.11446e-103 8.79325e-103 6.81941e-102 5.1968e-101 3.89041e-100 2.86022e-99 2.06451e-98 1.46256e-97 1.01661e-96 6.93087e-96 4.63309e-95 3.03562e-94 1.94876e-93 1.22529e-92 7.54253e-92 4.54375e-91 2.67761e-90 1.54284e-89 8.68844e-89 4.77968e-88 2.5673e-87 1.34571e-86 6.88007e-86 3.42889e-85 1.66488e-84 7.8707e-84 3.62053e-83 1.61946e-82 7.03897e-82 2.97079e-81 1.21656e-80 4.82999e-80 1.85762e-79 6.91492e-79 2.48913e-78 8.65621e-78 2.90536e-77 9.40195e-77 2.93032e-76 8.78635e-76 2.53158e-75 7.00073e-75 1.85576e-74 4.70944e-74 1.14266e-73 2.64719e-73 5.84774e-73 1.23011e-72 2.46082e-72 4.67573e-72 8.42836e-72 1.43983e-71 2.32907e-71 3.56535e-71 5.16364e-71 7.07646e-71 9.18301e-71 1.1299e-70 1.32094e-70 1.47155e-70 1.5681e-70 1.60602e-70 1.5901e-70 1.53247e-70 1.44956e-70 1.35924e-70 1.27867e-70 1.22296e-70 1.20407e-70 1.22953e-70 1.30108e-70 1.41362e-70 1.5553e-70 1.70903e-70 1.85554e-70 1.97727e-70 2.06194e-70 2.10485e-70 2.10916e-70 2.0844e-70 2.04375e-70 2.001e-70 1.96806e-70 1.95327e-70 1.96053e-70 1.98937e-70 2.03562e-70 2.09289e-70 2.1544e-70 2.21476e-70 2.27082e-70 2.32135e-70 2.36554e-70 2.40132e-70 2.42433e-70 2.42845e-70 2.40763e-70 2.35829e-70 2.28115e-70 2.18145e-70 2.06759e-70 1.94879e-70 1.83274e-70 1.72413e-70 1.6244e-70 1.53273e-70 1.44781e-70 1.36971e-70 1.30127e-70 1.24801e-70 1.21664e-70 1.21248e-70 1.23679e-70 1.2854e-70 1.34926e-70 1.4168e-70 1.47711e-70 1.5226e-70 1.55015e-70 1.56072e-70 1.55804e-70 1.54716e-70 1.5337e-70 1.52346e-70 1.52226e-70 1.53511e-70 1.56491e-70 1.61093e-70 1.66798e-70 1.72689e-70 1.77647e-70 1.80627e-70 1.80941e-70 1.78459e-70 1.73678e-70 1.6765e-70 1.61794e-70 1.57636e-70 1.56526e-70 1.59392e-70 1.66572e-70 1.7774e-70 1.91933e-70 2.07673e-70 2.23172e-70 2.36619e-70 2.46477e-70 2.51741e-70 2.52054e-70 2.47645e-70 2.39114e-70 2.27155e-70 2.12338e-70 1.95047e-70 1.75574e-70 1.54298e-70 1.31838e-70 1.09078e-70 8.7075e-71 6.6863e-71 4.92657e-71 3.47627e-71 2.34542e-71 1.51132e-71 9.29295e-72 5.44973e-72 3.04726e-72 1.62465e-72 8.26089e-73 4.00776e-73 1.8563e-73 8.2147e-74 3.47615e-74 1.4079e-74 5.46311e-75 2.03301e-75 7.26308e-76 2.49363e-76 8.23602e-77 2.6195e-77 8.03091e-78 2.37561e-78 6.78671e-79 1.87417e-79 5.00734e-80 1.29545e-80 3.2479e-81 7.8976e-82 1.86391e-82 4.27272e-83 9.52005e-84 2.06309e-84 4.35129e-85 8.93735e-86 1.78874e-86 3.49043e-87 6.64421e-88 1.23443e-88 2.23961e-89 3.96979e-90 6.87793e-91 1.1653e-91 1.93151e-92 3.13341e-93 4.97706e-94 7.74344e-95 1.18049e-95 1.76408e-96 2.58496e-97 3.71546e-98 5.24007e-99 7.25168e-100 9.68663e-101 0 