# vtk DataFile Version 3.0
Gray-Scott Simulation Output
ASCII
DATASET STRUCTURED_POINTS
DIMENSIONS 256 256 1
SPACING 1.0 1.0 1.0
ORIGIN 0 0 0
POINT_DATA 65536
SCALARS u double
LOOKUP_TABLE default
0 0 0 0 0 0 0 0 0 0 0 0 0 0 0 0 0 0 0 0 0 0 0 0 0 0 0 0 0 0 0 0 0 0 0 0 0 0 0 0 0 0 0 0 0 0 0 0 0 0 0 0 0 0 0 0 0 0 0 0 0 0 0 0 0 0 0 0 0 0 0 0 0 0 0 0 0 0 0 0 0 0 0 0 0 0 0 0 0 0 0 0 0 0 0 0 0 0 0 0 0 0 0 0 0 0 0 0 0 0 0 0 0 0 0 0 0 0 0 0 0 0 0 0 0 0 0 0 0 0 0 0 0 0 0 0 0 0 0 0 0 0 0 0 0 0 0 0 0 0 0 0 0 0 0 0 0 0 0 0 0 0 0 0 0 0 0 0 0 0 0 0 0 0 0 0 0 0 0 0 0 0 0 0 0 0 0 0 0 0 0 0 0 0 0 0 0 0 0 0 0 0 0 0 0 0 0 0 0 0 0 0 0 0 0 0 0 0 0 0 0 0 0 0 0 0 0 0 0 0 0 0 0 0 0 0 0 0 0 0 0 0 0 0 0 0 0 0 0 0 0 0 0 0 0 0 
0 4.25876e-76 1.47666e-75 4.6667e-75 1.45153e-74 4.47492e-74 1.36823e-73 4.14911e-73 1.24782e-72 3.72156e-72 1.10066e-71 3.2278e-71 9.38564e-71 2.70582e-70 7.73369e-70 2.19129e-69 6.1548e-69 1.71357e-68 4.72862e-68 1.29326e-67 3.50535e-67 9.4154e-67 2.50601e-66 6.60896e-66 1.72688e-65 4.47033e-65 1.1464e-64 2.91221e-64 7.3277e-64 1.82617e-63 4.50724e-63 1.10166e-62 2.66634e-62 6.38979e-62 1.5161e-61 3.56125e-61 8.28098e-61 1.90603e-60 4.34222e-60 9.79026e-60 2.18445e-59 4.82305e-59 1.05365e-58 2.27733e-58 4.86947e-58 1.02996e-57 2.15482e-57 4.45873e-57 9.12402e-57 1.84628e-56 3.69407e-56 7.30758e-56 1.4291e-55 2.76269e-55 5.27893e-55 9.96925e-55 1.86056e-54 3.43123e-54 6.25231e-54 1.12558e-53 2.00181e-53 3.51669e-53 6.10203e-53 1.04569e-52 1.76965e-52 2.95721e-52 4.87925e-52 7.94811e-52 1.27814e-51 2.0289e-51 3.17889e-51 4.91578e-51 7.50203e-51 1.1298e-50 1.67895e-50 2.46182e-50 3.56149e-50 5.08328e-50 7.15768e-50 9.94257e-50 1.36242e-49 1.84161e-49 2.45556e-49 3.22978e-49 4.19047e-49 5.3633e-49 6.77165e-49 8.43474e-49 1.03656e-48 1.2569e-48 1.50397e-48 1.77612e-48 2.07048e-48 2.38301e-48 2.70859e-48 3.04119e-48 3.37424e-48 3.70091e-48 4.01457e-48 4.30914e-48 4.57953e-48 4.82191e-48 5.03392e-48 5.2148e-48 5.36531e-48 5.48764e-48 5.58507e-48 5.66173e-48 5.72217e-48 5.77101e-48 5.81261e-48 5.85075e-48 5.88849e-48 5.92805e-48 5.97077e-48 6.01723e-48 6.06732e-48 6.12046e-48 6.17577e-48 6.23222e-48 6.28881e-48 6.34462e-48 6.39895e-48 6.45124e-48 6.50111e-48 6.54827e-48 6.59246e-48 6.63336e-48 6.67056e-48 6.70346e-48 6.7313e-48 6.75313e-48 6.76791e-48 6.77451e-48 6.77181e-48 6.75882e-48 6.73477e-48 6.69916e-48 6.65189e-48 6.59326e-48 6.52404e-48 6.44543e-48 6.35905e-48 6.26687e-48 6.17114e-48 6.07426e-48 5.97871e-48 5.88687e-48 5.80095e-48 5.72289e-48 5.65423e-48 5.59611e-48 5.54918e-48 5.51364e-48 5.48925e-48 5.47539e-48 5.47112e-48 5.47529e-48 5.48662e-48 5.50381e-48 5.52556e-48 5.55072e-48 5.57826e-48 5.60733e-48 5.63725e-48 5.66753e-48 5.69782e-48 5.72792e-48 5.75778e-48 5.78745e-48 5.8171e-48 5.84703e-48 5.87762e-48 5.90936e-48 5.94281e-48 5.97851e-48 6.01699e-48 6.05861e-48 6.10351e-48 6.15151e-48 6.20197e-48 6.25377e-48 6.30524e-48 6.35412e-48 6.39762e-48 6.43248e-48 6.45507e-48 6.46157e-48 6.44809e-48 6.41092e-48 6.3467e-48 6.25261e-48 6.12654e-48 5.96726e-48 5.77452e-48 5.54911e-48 5.29291e-48 5.00879e-48 4.70063e-48 4.37306e-48 4.03139e-48 3.68133e-48 3.32877e-48 2.97955e-48 2.63919e-48 2.3127e-48 2.00436e-48 1.71765e-48 1.4551e-48 1.21832e-48 1.00798e-48 8.23933e-49 6.65295e-49 5.30587e-49 4.17895e-49 3.25013e-49 2.49584e-49 1.89227e-49 1.41636e-49 1.04657e-49 7.6339e-50 5.49669e-50 3.90683e-50 2.74103e-50 1.89833e-50 1.29778e-50 8.75821e-51 5.83474e-51 3.83739e-51 2.49158e-51 1.59719e-51 1.01089e-51 6.31746e-52 3.89846e-52 2.37565e-52 1.42969e-52 8.49761e-53 4.98861e-53 2.89282e-53 1.65712e-53 9.37801e-54 5.24353e-54 2.89687e-54 1.58146e-54 8.53198e-55 4.54921e-55 2.39747e-55 1.24892e-55 6.43152e-56 3.27413e-56 1.64742e-56 8.18386e-57 3.99285e-57 1.86691e-57 7.34144e-58 0 
0 1.47702e-75 5.12226e-75 1.61914e-74 5.0373e-74 1.5533e-73 4.7504e-73 1.44089e-72 4.33444e-72 1.29305e-71 3.8252e-71 1.12208e-70 3.26359e-70 9.41131e-70 2.69066e-69 7.62599e-69 2.14257e-68 5.96694e-68 1.64709e-67 4.50612e-67 1.22175e-66 3.2827e-66 8.74011e-66 2.30575e-65 6.02682e-65 1.56069e-64 4.00373e-64 1.01743e-63 2.561e-63 6.38473e-63 1.57643e-62 3.85458e-62 9.33286e-62 2.23747e-61 5.31092e-61 1.24802e-60 2.90321e-60 6.68507e-60 1.5236e-59 3.43668e-59 7.67139e-59 1.6945e-58 3.70344e-58 8.00812e-58 1.71309e-57 3.62506e-57 7.58756e-57 1.57073e-56 3.2157e-56 6.51009e-56 1.30316e-55 2.57909e-55 5.04612e-55 9.75957e-55 1.86572e-54 3.52504e-54 6.58183e-54 1.21438e-53 2.21382e-53 3.98729e-53 7.09443e-53 1.24687e-52 2.16448e-52 3.71083e-52 6.28257e-52 1.0503e-51 1.73365e-51 2.82516e-51 4.54489e-51 7.21716e-51 1.13119e-50 1.74986e-50 2.67135e-50 4.02429e-50 5.98205e-50 8.77375e-50 1.26961e-49 1.81251e-49 2.55269e-49 3.54653e-49 4.86053e-49 6.57092e-49 8.76244e-49 1.1526e-48 1.4955e-48 1.91408e-48 2.41665e-48 3.01001e-48 3.69873e-48 4.4844e-48 5.36506e-48 6.33463e-48 7.38277e-48 8.49484e-48 9.6524e-48 1.08339e-47 1.20156e-47 1.31731e-47 1.42828e-47 1.5323e-47 1.62755e-47 1.71269e-47 1.7869e-47 1.84991e-47 1.90204e-47 1.94408e-47 1.97724e-47 2.00301e-47 2.02303e-47 2.03897e-47 2.0524e-47 2.06467e-47 2.07689e-47 2.08984e-47 2.10401e-47 2.11959e-47 2.13655e-47 2.15468e-47 2.17365e-47 2.1931e-47 2.21265e-47 2.23199e-47 2.25084e-47 2.26902e-47 2.28638e-47 2.30281e-47 2.31822e-47 2.33251e-47 2.34551e-47 2.35702e-47 2.36677e-47 2.37443e-47 2.37962e-47 2.38196e-47 2.38105e-47 2.37654e-47 2.36816e-47 2.35573e-47 2.33921e-47 2.31871e-47 2.2945e-47 2.267e-47 2.23678e-47 2.20452e-47 2.17101e-47 2.13711e-47 2.10367e-47 2.07153e-47 2.04146e-47 2.01415e-47 1.99014e-47 1.96981e-47 1.95341e-47 1.941e-47 1.93249e-47 1.92766e-47 1.92618e-47 1.92766e-47 1.93164e-47 1.93765e-47 1.94526e-47 1.95406e-47 1.96368e-47 1.97383e-47 1.98427e-47 1.99484e-47 2.0054e-47 2.01591e-47 2.02632e-47 2.03667e-47 2.04702e-47 2.05746e-47 2.06815e-47 2.07924e-47 2.09094e-47 2.10344e-47 2.11692e-47 2.13153e-47 2.14731e-47 2.1642e-47 2.18199e-47 2.20029e-47 2.21851e-47 2.23588e-47 2.25141e-47 2.26397e-47 2.27228e-47 2.27499e-47 2.27074e-47 2.25822e-47 2.23622e-47 2.20375e-47 2.16005e-47 2.10466e-47 2.03747e-47 1.95874e-47 1.8691e-47 1.76955e-47 1.66143e-47 1.54635e-47 1.42619e-47 1.30294e-47 1.17869e-47 1.05549e-47 9.35322e-48 8.19949e-48 7.10909e-48 6.09444e-48 5.16468e-48 4.32565e-48 3.57991e-48 2.92706e-48 2.36406e-48 1.88579e-48 1.48555e-48 1.15555e-48 8.87482e-49 6.7293e-49 5.03722e-49 3.72223e-49 2.71512e-49 1.95497e-49 1.38947e-49 9.7479e-50 6.75045e-50 4.61442e-50 3.11368e-50 2.07403e-50 1.36382e-50 8.85345e-51 5.67421e-51 3.59051e-51 2.24331e-51 1.38397e-51 8.43143e-52 5.07267e-52 3.01415e-52 1.76894e-52 1.02546e-52 5.87232e-53 3.32216e-53 1.85688e-53 1.0255e-53 5.59646e-54 3.01819e-54 1.6087e-54 8.47482e-55 4.41316e-55 2.27177e-55 1.15606e-55 5.81466e-56 2.88745e-56 1.40825e-56 6.58233e-57 2.5878e-57 0 
0 4.6692e-75 1.61961e-74 5.12084e-74 1.59357e-73 4.91527e-73 1.50364e-72 4.56215e-72 1.37278e-71 4.0965e-71 1.21223e-70 3.55704e-70 1.03491e-69 2.98537e-69 8.53791e-69 2.42068e-68 6.80343e-68 1.89539e-67 5.23383e-67 1.43241e-66 3.88518e-66 1.0443e-65 2.78151e-65 7.3409e-65 1.91956e-64 4.97289e-64 1.27626e-63 3.24465e-63 8.1707e-63 2.03791e-62 5.034e-62 1.23144e-61 2.98299e-61 7.15481e-61 1.6991e-60 3.99467e-60 9.29716e-60 2.14188e-59 4.88403e-59 1.10222e-58 2.46165e-58 5.44026e-58 1.18963e-57 2.57376e-57 5.5087e-57 1.16632e-56 2.44254e-56 5.05917e-56 1.03632e-55 2.09915e-55 4.20431e-55 8.32542e-55 1.62982e-54 3.15394e-54 6.03269e-54 1.14044e-53 2.13056e-53 3.93314e-53 7.17411e-53 1.29282e-52 2.30151e-52 4.04714e-52 7.02922e-52 1.20573e-51 2.04238e-51 3.41607e-51 5.64138e-51 9.19757e-51 1.48031e-50 2.35174e-50 3.68761e-50 5.70674e-50 8.71536e-50 1.31342e-49 1.95306e-49 2.86545e-49 4.1477e-49 5.92294e-49 8.34376e-49 1.15948e-48 1.58936e-48 2.14898e-48 2.86605e-48 3.77029e-48 4.89223e-48 6.26162e-48 7.9055e-48 9.84591e-48 1.20975e-47 1.4665e-47 1.75416e-47 2.07069e-47 2.41262e-47 2.77513e-47 3.1521e-47 3.53643e-47 3.92032e-47 4.29576e-47 4.65497e-47 4.99091e-47 5.29766e-47 5.57087e-47 5.80792e-47 6.00808e-47 6.17243e-47 6.30368e-47 6.40587e-47 6.48399e-47 6.54347e-47 6.58985e-47 6.62827e-47 6.66325e-47 6.69837e-47 6.73623e-47 6.7784e-47 6.82553e-47 6.87748e-47 6.93355e-47 6.99265e-47 7.05356e-47 7.11506e-47 7.17607e-47 7.23571e-47 7.29332e-47 7.34842e-47 7.40065e-47 7.44971e-47 7.49521e-47 7.53668e-47 7.57344e-47 7.60461e-47 7.62916e-47 7.64586e-47 7.65344e-47 7.65066e-47 7.63639e-47 7.60973e-47 7.57013e-47 7.51746e-47 7.45205e-47 7.37475e-47 7.28691e-47 7.19035e-47 7.08729e-47 6.98023e-47 6.87188e-47 6.76502e-47 6.66232e-47 6.56628e-47 6.47904e-47 6.40235e-47 6.33748e-47 6.28514e-47 6.24557e-47 6.21846e-47 6.20312e-47 6.19849e-47 6.20327e-47 6.21602e-47 6.23526e-47 6.25957e-47 6.28763e-47 6.31831e-47 6.35065e-47 6.38391e-47 6.41755e-47 6.45119e-47 6.48461e-47 6.51776e-47 6.55071e-47 6.58366e-47 6.61693e-47 6.65098e-47 6.68637e-47 6.72371e-47 6.76367e-47 6.80684e-47 6.85366e-47 6.90433e-47 6.95867e-47 7.01601e-47 7.07515e-47 7.13422e-47 7.19074e-47 7.24158e-47 7.28311e-47 7.31124e-47 7.32164e-47 7.30991e-47 7.2718e-47 7.20343e-47 7.10151e-47 6.96354e-47 6.78797e-47 6.57437e-47 6.32346e-47 6.03718e-47 5.71867e-47 5.37216e-47 5.00281e-47 4.61659e-47 4.21995e-47 3.81958e-47 3.42218e-47 3.03411e-47 2.66116e-47 2.30836e-47 1.97978e-47 1.67845e-47 1.40632e-47 1.16429e-47 9.52267e-48 7.69329e-48 6.13846e-48 4.83668e-48 3.76296e-48 2.89047e-48 2.19194e-48 1.64092e-48 1.21261e-48 8.84538e-49 6.36885e-49 4.52637e-49 3.17528e-49 2.19867e-49 1.50276e-49 1.01386e-49 6.75214e-50 4.43908e-50 2.88105e-50 1.84602e-50 1.16781e-50 7.29421e-51 4.49867e-51 2.73979e-51 1.64781e-51 9.7877e-52 5.74211e-52 3.32745e-52 1.90473e-52 1.07713e-52 6.01806e-53 3.32221e-53 1.81225e-53 9.76931e-54 5.20476e-54 2.74072e-54 1.42656e-54 7.34019e-55 3.7336e-55 1.87704e-55 9.31683e-56 4.54197e-56 2.12213e-56 8.34059e-57 0 
0 1.45275e-74 5.04028e-74 1.59405e-73 4.96197e-73 1.53093e-72 4.68469e-72 1.42179e-71 4.27958e-71 1.27747e-70 3.78149e-70 1.10997e-69 3.2305e-69 9.32213e-69 2.66699e-68 7.56419e-68 2.12673e-67 5.92713e-67 1.63731e-66 4.48279e-66 1.21637e-65 3.2708e-65 8.71542e-65 2.30112e-64 6.01973e-64 1.56017e-63 4.00587e-63 1.01887e-62 2.56691e-62 6.40527e-62 1.58297e-61 3.87418e-61 9.38925e-61 2.25316e-60 5.35342e-60 1.25926e-59 2.9323e-59 6.75897e-59 1.54204e-58 3.4819e-58 7.78056e-58 1.72045e-57 3.76423e-57 8.14844e-57 1.74502e-56 3.69674e-56 7.74624e-56 1.60538e-55 3.29036e-55 6.66881e-55 1.33645e-54 2.64801e-54 5.1869e-54 1.00433e-53 1.92217e-53 3.63585e-53 6.79646e-53 1.2554e-52 2.29119e-52 4.13125e-52 7.3587e-52 1.29474e-51 2.24999e-51 3.86154e-51 6.54454e-51 1.09521e-50 1.80959e-50 2.95178e-50 4.75307e-50 7.55464e-50 1.18513e-49 1.83483e-49 2.80332e-49 4.22631e-49 6.28685e-49 9.22695e-49 1.33601e-48 1.90839e-48 2.68908e-48 3.73769e-48 5.12449e-48 6.92998e-48 9.24357e-48 1.21611e-47 1.57807e-47 2.01983e-47 2.55003e-47 3.17573e-47 3.90152e-47 4.72884e-47 5.65528e-47 6.67406e-47 7.77386e-47 8.93881e-47 1.0149e-46 1.13813e-46 1.26105e-46 1.38106e-46 1.49564e-46 1.60253e-46 1.69983e-46 1.78615e-46 1.86069e-46 1.92322e-46 1.97414e-46 2.01435e-46 2.04519e-46 2.0683e-46 2.08545e-46 2.09846e-46 2.10901e-46 2.11854e-46 2.12824e-46 2.13894e-46 2.15114e-46 2.16506e-46 2.18063e-46 2.19763e-46 2.21571e-46 2.23445e-46 2.25347e-46 2.2724e-46 2.29096e-46 2.30892e-46 2.32613e-46 2.34247e-46 2.35784e-46 2.37211e-46 2.38514e-46 2.39669e-46 2.40651e-46 2.41426e-46 2.41954e-46 2.42197e-46 2.42114e-46 2.41669e-46 2.40834e-46 2.39592e-46 2.37939e-46 2.35883e-46 2.33453e-46 2.30691e-46 2.27654e-46 2.24411e-46 2.21043e-46 2.17634e-46 2.14271e-46 2.1104e-46 2.08019e-46 2.05275e-46 2.02864e-46 2.00825e-46 1.99181e-46 1.97939e-46 1.97089e-46 1.96609e-46 1.96466e-46 1.96619e-46 1.97021e-46 1.97627e-46 1.98392e-46 1.99273e-46 2.00236e-46 2.01251e-46 2.02294e-46 2.03348e-46 2.04402e-46 2.05449e-46 2.06488e-46 2.07521e-46 2.08553e-46 2.09597e-46 2.10665e-46 2.11777e-46 2.12951e-46 2.14209e-46 2.1557e-46 2.17048e-46 2.18651e-46 2.20373e-46 2.22194e-46 2.24077e-46 2.25964e-46 2.27777e-46 2.29419e-46 2.30773e-46 2.31712e-46 2.32099e-46 2.31793e-46 2.30659e-46 2.28574e-46 2.25431e-46 2.21149e-46 2.15675e-46 2.08994e-46 2.01124e-46 1.92124e-46 1.82092e-46 1.71157e-46 1.59483e-46 1.47257e-46 1.34684e-46 1.21976e-46 1.09347e-46 9.69998e-47 8.51213e-47 7.38732e-47 6.33877e-47 5.37636e-47 4.50653e-47 3.73235e-47 3.05372e-47 2.46783e-47 1.96961e-47 1.55228e-47 1.20792e-47 9.27992e-48 7.03816e-48 5.26933e-48 3.89415e-48 2.84064e-48 2.04529e-48 1.45353e-48 1.01958e-48 7.05914e-49 4.82415e-49 3.25416e-49 2.1668e-49 1.42422e-49 9.24126e-50 5.91973e-50 3.7438e-50 2.3377e-50 1.4413e-50 8.77484e-51 5.27561e-51 3.13246e-51 1.837e-51 1.06408e-51 6.08859e-52 3.44168e-52 1.92207e-52 1.06059e-52 5.78288e-53 3.11596e-53 1.65931e-53 8.7335e-54 4.54369e-54 2.33679e-54 1.18805e-54 5.96995e-55 2.96182e-55 1.44323e-55 6.74036e-56 2.64834e-56 0 
0 4.48003e-74 1.55469e-73 4.91825e-73 1.5314e-72 4.72626e-72 1.44669e-71 4.39203e-71 1.32241e-70 3.94874e-70 1.16927e-69 3.43327e-69 9.9958e-69 2.88547e-68 8.25809e-68 2.34305e-67 6.59013e-67 1.83736e-66 5.07751e-66 1.39072e-65 3.77515e-65 1.01556e-64 2.70721e-64 7.15089e-64 1.87149e-63 4.85265e-63 1.24652e-62 3.17194e-62 7.99502e-62 1.99598e-61 4.93516e-61 1.20844e-60 2.93018e-60 7.03521e-60 1.6724e-59 3.93597e-59 9.17018e-59 2.11487e-58 4.82764e-58 1.09068e-57 2.43857e-57 5.39526e-57 1.18112e-56 2.55825e-56 5.48179e-56 1.16197e-55 2.43626e-55 5.05208e-55 1.03609e-54 2.10117e-54 4.21337e-54 8.35331e-54 1.63723e-53 3.17208e-53 6.07465e-53 1.14974e-52 2.15049e-52 3.97464e-52 7.25833e-52 1.30953e-51 2.33394e-51 4.10887e-51 7.14449e-51 1.22686e-50 2.08044e-50 3.48345e-50 5.75866e-50 9.39832e-50 1.51411e-49 2.40773e-49 3.77888e-49 5.85313e-49 8.94642e-49 1.34932e-48 2.00794e-48 2.94802e-48 4.26998e-48 6.10115e-48 8.59936e-48 1.19555e-47 1.63948e-47 2.21749e-47 2.9582e-47 3.89225e-47 5.05105e-47 6.46512e-47 8.16202e-47 1.0164e-46 1.24855e-46 1.51306e-46 1.80911e-46 2.13447e-46 2.48544e-46 2.85687e-46 3.24232e-46 3.63432e-46 4.02473e-46 4.40521e-46 4.7677e-46 5.10496e-46 5.41096e-46 5.68132e-46 5.91352e-46 6.10699e-46 6.26306e-46 6.38477e-46 6.47651e-46 6.54361e-46 6.59187e-46 6.62712e-46 6.65481e-46 6.67964e-46 6.70536e-46 6.73466e-46 6.76917e-46 6.80951e-46 6.85552e-46 6.90642e-46 6.96106e-46 7.01813e-46 7.07633e-46 7.1345e-46 7.19169e-46 7.24718e-46 7.30045e-46 7.35112e-46 7.39882e-46 7.4432e-46 7.48373e-46 7.51976e-46 7.55041e-46 7.57463e-46 7.59122e-46 7.59891e-46 7.59645e-46 7.58273e-46 7.55684e-46 7.51823e-46 7.46676e-46 7.40274e-46 7.32702e-46 7.2409e-46 7.14619e-46 7.04506e-46 6.93999e-46 6.83365e-46 6.72877e-46 6.62799e-46 6.53377e-46 6.44823e-46 6.37308e-46 6.30955e-46 6.25836e-46 6.21971e-46 6.1933e-46 6.17844e-46 6.17406e-46 6.17888e-46 6.19148e-46 6.2104e-46 6.23422e-46 6.26168e-46 6.29164e-46 6.32319e-46 6.35561e-46 6.38836e-46 6.4211e-46 6.45363e-46 6.48589e-46 6.51796e-46 6.55004e-46 6.58248e-46 6.61572e-46 6.65032e-46 6.68692e-46 6.72618e-46 6.76872e-46 6.81501e-46 6.86528e-46 6.91941e-46 6.97679e-46 7.03626e-46 7.09606e-46 7.15376e-46 7.20632e-46 7.25016e-46 7.28124e-46 7.29527e-46 7.28784e-46 7.25469e-46 7.19187e-46 7.09599e-46 6.9644e-46 6.79541e-46 6.58836e-46 6.34379e-46 6.06343e-46 5.75021e-46 5.40818e-46 5.0424e-46 4.65871e-46 4.26352e-46 3.86356e-46 3.46556e-46 3.07598e-46 2.70076e-46 2.3451e-46 2.01322e-46 1.70833e-46 1.43256e-46 1.18692e-46 9.71451e-47 7.85316e-47 6.26945e-47 4.94222e-47 3.84661e-47 2.95567e-47 2.24195e-47 1.67865e-47 1.24063e-47 9.05007e-48 6.51603e-48 4.63053e-48 3.24783e-48 2.2484e-48 1.53632e-48 1.03616e-48 6.89794e-49 4.53294e-49 2.94053e-49 1.88312e-49 1.19059e-49 7.4319e-50 4.58059e-50 2.78775e-50 1.67543e-50 9.94423e-51 5.82936e-51 3.37526e-51 1.93048e-51 1.09076e-51 6.08883e-52 3.35827e-52 1.83025e-52 9.85718e-53 5.24665e-53 2.76015e-53 1.4353e-53 7.37803e-54 3.7492e-54 1.88305e-54 9.33765e-55 4.54787e-55 2.1231e-55 8.33919e-56 0 
0 1.37021e-73 4.75612e-73 1.50502e-72 4.68755e-72 1.44713e-71 4.43098e-71 1.34564e-70 4.05295e-70 1.21062e-69 3.58599e-69 1.0533e-68 3.06773e-68 8.85877e-68 2.53628e-67 7.19884e-67 2.02555e-66 5.64954e-66 1.56187e-65 4.27969e-65 1.16222e-64 3.12782e-64 8.34158e-64 2.20434e-63 5.77168e-63 1.49724e-62 3.84784e-62 9.79596e-62 2.47031e-61 6.17023e-61 1.52638e-60 3.73945e-60 9.07197e-60 2.17927e-59 5.1833e-59 1.22054e-58 2.84522e-58 6.56541e-58 1.49954e-57 3.38973e-57 7.58321e-57 1.67874e-56 3.67722e-56 7.96942e-56 1.7087e-55 3.62411e-55 7.60316e-55 1.57763e-54 3.23742e-54 6.56953e-54 1.31817e-53 2.615e-53 5.12856e-53 9.94262e-53 1.90523e-52 3.60826e-52 6.75316e-52 1.24892e-51 2.28214e-51 4.11988e-51 7.34722e-51 1.29424e-50 2.25175e-50 3.86899e-50 6.56455e-50 1.09977e-49 1.81908e-49 2.97038e-49 4.78789e-49 7.61747e-49 1.19612e-48 1.85354e-48 2.83435e-48 4.2766e-48 6.36658e-48 9.35073e-48 1.35484e-47 1.93646e-47 2.73014e-47 3.7966e-47 5.20743e-47 7.04459e-47 9.39904e-47 1.2368e-46 1.60512e-46 2.05452e-46 2.59371e-46 3.22967e-46 3.96687e-46 4.80649e-46 5.74571e-46 6.77725e-46 7.88911e-46 9.06471e-46 1.02834e-45 1.15211e-45 1.27518e-45 1.39491e-45 1.50871e-45 1.61429e-45 1.70976e-45 1.79373e-45 1.86544e-45 1.92474e-45 1.9721e-45 2.0085e-45 2.03538e-45 2.05448e-45 2.06765e-45 2.07679e-45 2.08363e-45 2.08967e-45 2.09613e-45 2.10385e-45 2.11335e-45 2.12482e-45 2.1382e-45 2.15325e-45 2.16958e-45 2.18678e-45 2.20442e-45 2.22213e-45 2.2396e-45 2.25659e-45 2.27294e-45 2.28851e-45 2.3032e-45 2.31688e-45 2.3294e-45 2.34053e-45 2.35003e-45 2.35754e-45 2.3627e-45 2.36512e-45 2.36441e-45 2.36021e-45 2.35224e-45 2.34034e-45 2.32445e-45 2.30467e-45 2.28126e-45 2.25463e-45 2.22534e-45 2.19405e-45 2.16154e-45 2.12864e-45 2.09619e-45 2.06502e-45 2.03587e-45 2.00942e-45 1.98618e-45 1.96655e-45 1.95074e-45 1.93881e-45 1.93067e-45 1.9261e-45 1.92478e-45 1.92629e-45 1.9302e-45 1.93606e-45 1.94343e-45 1.95191e-45 1.96115e-45 1.97088e-45 1.98088e-45 1.99097e-45 2.00105e-45 2.01107e-45 2.02101e-45 2.03089e-45 2.04078e-45 2.05078e-45 2.06103e-45 2.07172e-45 2.08303e-45 2.09519e-45 2.10838e-45 2.12276e-45 2.13841e-45 2.15529e-45 2.17322e-45 2.19187e-45 2.21068e-45 2.22891e-45 2.24562e-45 2.2597e-45 2.2699e-45 2.27489e-45 2.2733e-45 2.26377e-45 2.24507e-45 2.21612e-45 2.17608e-45 2.12438e-45 2.06079e-45 1.98544e-45 1.89883e-45 1.80186e-45 1.69575e-45 1.58207e-45 1.46262e-45 1.33939e-45 1.2145e-45 1.09005e-45 9.6808e-46 8.50471e-46 7.38867e-46 6.34623e-46 5.3877e-46 4.51994e-46 3.74641e-46 3.06742e-46 2.48049e-46 1.98083e-46 1.56188e-46 1.21588e-46 9.34422e-47 7.08874e-47 5.30815e-47 3.92325e-47 2.86196e-47 2.06057e-47 1.46424e-47 1.02692e-47 7.10832e-48 4.85635e-48 3.27474e-48 2.17962e-48 1.43199e-48 9.28699e-49 5.94574e-49 3.758e-49 2.34506e-49 1.44486e-49 8.79022e-50 5.28089e-50 3.13314e-50 1.83591e-50 1.06256e-50 6.07464e-51 3.43075e-51 1.91423e-51 1.05529e-51 5.74857e-52 3.09451e-52 1.6463e-52 8.65654e-53 4.4992e-53 2.31161e-53 1.17407e-53 5.89382e-54 2.92114e-54 1.42204e-54 6.63564e-55 2.60553e-55 0 
0 4.15641e-73 1.44307e-72 4.56773e-72 1.4231e-71 4.39473e-71 1.34605e-70 4.08913e-70 1.23202e-69 3.6813e-69 1.09082e-68 3.20519e-68 9.33843e-68 2.69768e-67 7.72643e-67 2.19388e-66 6.17539e-66 1.72309e-65 4.76562e-65 1.30638e-64 3.54919e-64 9.55594e-64 2.54961e-63 6.74062e-63 1.76573e-62 4.58266e-62 1.17828e-61 3.00118e-61 7.57203e-61 1.89226e-60 4.68345e-60 1.14798e-59 2.7865e-59 6.69735e-59 1.5938e-58 3.75509e-58 8.75846e-58 2.02219e-57 4.62132e-57 1.04527e-56 2.33977e-56 5.18277e-56 1.13595e-55 2.46338e-55 5.28492e-55 1.12161e-54 2.35455e-54 4.8887e-54 1.00383e-53 2.03832e-53 4.09249e-53 8.12393e-53 1.59429e-52 3.09281e-52 5.93035e-52 1.12385e-51 2.10473e-51 3.89494e-51 7.12169e-51 1.28647e-50 2.29566e-50 4.04639e-50 7.04428e-50 1.21108e-49 2.05606e-49 3.44655e-49 5.70398e-49 9.31916e-49 1.50294e-48 2.39238e-48 3.75847e-48 5.82698e-48 8.91441e-48 1.34563e-47 2.00405e-47 2.9445e-47 4.26783e-47 6.10192e-47 8.60534e-47 1.19699e-46 1.64215e-46 2.2219e-46 2.96494e-46 3.90193e-46 5.06424e-46 6.48225e-46 8.18324e-46 1.0189e-45 1.25132e-45 1.51592e-45 1.81174e-45 2.13642e-45 2.48611e-45 2.85548e-45 3.23795e-45 3.62587e-45 4.01099e-45 4.38487e-45 4.73942e-45 5.06739e-45 5.36284e-45 5.62151e-45 5.84104e-45 6.0211e-45 6.16325e-45 6.27076e-45 6.34828e-45 6.40135e-45 6.43598e-45 6.45816e-45 6.47344e-45 6.48661e-45 6.50149e-45 6.52075e-45 6.54603e-45 6.57791e-45 6.6162e-45 6.66008e-45 6.70834e-45 6.75962e-45 6.81256e-45 6.86597e-45 6.91884e-45 6.97043e-45 7.02016e-45 7.06763e-45 7.11247e-45 7.1543e-45 7.19262e-45 7.22678e-45 7.25593e-45 7.27906e-45 7.29501e-45 7.30255e-45 7.3005e-45 7.28775e-45 7.26344e-45 7.22704e-45 7.17839e-45 7.11778e-45 7.04602e-45 6.96434e-45 6.87446e-45 6.77846e-45 6.67869e-45 6.57772e-45 6.47813e-45 6.38245e-45 6.29303e-45 6.21188e-45 6.14063e-45 6.08045e-45 6.03202e-45 5.99551e-45 5.97063e-45 5.95671e-45 5.95272e-45 5.95743e-45 5.96948e-45 5.98747e-45 6.01006e-45 6.03604e-45 6.06435e-45 6.09411e-45 6.12466e-45 6.15551e-45 6.18632e-45 6.21692e-45 6.24728e-45 6.27746e-45 6.30768e-45 6.33826e-45 6.36964e-45 6.40238e-45 6.43708e-45 6.47442e-45 6.515e-45 6.55931e-45 6.60763e-45 6.65988e-45 6.71553e-45 6.77353e-45 6.83225e-45 6.88941e-45 6.94215e-45 6.98706e-45 7.0203e-45 7.03774e-45 7.03512e-45 7.00827e-45 6.95331e-45 6.86684e-45 6.74618e-45 6.58947e-45 6.39591e-45 6.16578e-45 5.90054e-45 5.60281e-45 5.27635e-45 4.92588e-45 4.55698e-45 4.1758e-45 3.78887e-45 3.40276e-45 3.02385e-45 2.65804e-45 2.31052e-45 1.98557e-45 1.6865e-45 1.4155e-45 1.17374e-45 9.61376e-46 7.77683e-46 6.2121e-46 4.89945e-46 3.81491e-46 2.93231e-46 2.22481e-46 1.66612e-46 1.23149e-46 8.98374e-47 6.46802e-47 4.59591e-47 3.22298e-47 2.23066e-47 1.52374e-47 1.0273e-47 6.83612e-48 4.49019e-48 2.91128e-48 1.86332e-48 1.17734e-48 7.34438e-49 4.52348e-49 2.75096e-49 1.65204e-49 9.79754e-50 5.73857e-50 3.31983e-50 1.89709e-50 1.07092e-50 5.9725e-51 3.29098e-51 1.79184e-51 9.64085e-52 5.1264e-52 2.69418e-52 1.39957e-52 7.18703e-53 3.6484e-53 1.83054e-53 9.06798e-54 4.41216e-54 2.05791e-54 8.07782e-55 0 
0 1.25041e-72 4.34236e-72 1.37488e-71 4.28486e-71 1.32364e-70 4.05546e-70 1.2324e-69 3.7144e-69 1.11025e-68 3.29101e-68 9.67354e-68 2.81947e-67 8.14796e-67 2.33456e-66 6.63147e-66 1.8674e-65 5.21268e-65 1.44229e-64 3.95539e-64 1.07508e-63 2.89587e-63 7.72994e-63 2.04458e-62 5.35838e-62 1.39135e-61 3.57917e-61 9.12096e-61 2.3024e-60 5.75671e-60 1.42557e-59 3.49615e-59 8.4908e-59 2.04189e-58 4.8619e-58 1.14614e-57 2.67483e-57 6.17935e-57 1.41301e-56 3.19792e-56 7.16266e-56 1.58756e-55 3.48175e-55 7.55512e-55 1.62189e-54 3.44432e-54 7.23514e-54 1.50319e-53 3.08862e-53 6.27566e-53 1.26084e-52 2.50452e-52 4.91829e-52 9.54743e-52 1.8319e-51 3.47389e-51 6.51012e-51 1.20553e-50 2.20569e-50 3.98695e-50 7.11915e-50 1.25564e-49 2.18728e-49 3.76278e-49 6.39197e-49 1.07211e-48 1.77536e-48 2.90222e-48 4.68309e-48 7.45853e-48 1.17235e-47 1.81845e-47 2.78326e-47 4.20319e-47 6.26245e-47 9.20485e-47 1.33465e-46 1.90885e-46 2.69279e-46 3.74661e-46 5.14116e-46 6.95754e-46 9.28564e-46 1.22214e-45 1.5863e-45 2.03052e-45 2.56328e-45 3.19133e-45 3.91883e-45 4.74666e-45 5.67166e-45 6.6862e-45 7.77796e-45 8.93007e-45 1.01216e-44 1.13284e-44 1.25244e-44 1.36832e-44 1.47793e-44 1.57901e-44 1.66971e-44 1.74872e-44 1.81534e-44 1.86948e-44 1.91169e-44 1.94302e-44 1.96496e-44 1.9793e-44 1.98793e-44 1.99276e-44 1.99555e-44 1.9978e-44 2.00071e-44 2.00513e-44 2.01157e-44 2.02019e-44 2.03094e-44 2.04355e-44 2.05764e-44 2.07276e-44 2.08849e-44 2.10444e-44 2.1203e-44 2.13582e-44 2.15082e-44 2.16516e-44 2.17873e-44 2.19142e-44 2.20305e-44 2.21344e-44 2.22232e-44 2.22938e-44 2.23427e-44 2.23661e-44 2.23602e-44 2.23219e-44 2.22483e-44 2.21379e-44 2.19902e-44 2.1806e-44 2.15878e-44 2.13393e-44 2.10658e-44 2.07736e-44 2.04699e-44 2.01625e-44 1.98594e-44 1.95682e-44 1.9296e-44 1.90491e-44 1.88324e-44 1.86495e-44 1.85023e-44 1.83915e-44 1.83161e-44 1.8274e-44 1.82621e-44 1.82767e-44 1.83135e-44 1.83683e-44 1.8437e-44 1.8516e-44 1.86019e-44 1.86922e-44 1.87848e-44 1.88783e-44 1.89716e-44 1.90644e-44 1.91563e-44 1.92478e-44 1.93394e-44 1.94321e-44 1.95274e-44 1.96268e-44 1.97324e-44 1.98461e-44 1.997e-44 2.01055e-44 2.02535e-44 2.0414e-44 2.05853e-44 2.07644e-44 2.09463e-44 2.11242e-44 2.12895e-44 2.14317e-44 2.15391e-44 2.1599e-44 2.15984e-44 2.15245e-44 2.13651e-44 2.11097e-44 2.07497e-44 2.02793e-44 1.96954e-44 1.89988e-44 1.81934e-44 1.7287e-44 1.62909e-44 1.52193e-44 1.40892e-44 1.29195e-44 1.17302e-44 1.05417e-44 9.37376e-45 8.24474e-45 7.17089e-45 6.16572e-45 5.23965e-45 4.39976e-45 3.64985e-45 2.99063e-45 2.42003e-45 1.93369e-45 1.52549e-45 1.18806e-45 9.13356e-46 6.93075e-46 5.1908e-46 3.83693e-46 2.79907e-46 2.0152e-46 1.43183e-46 1.00401e-46 6.948e-47 4.74533e-47 3.19868e-47 2.12808e-47 1.39745e-47 9.05806e-48 5.79575e-48 3.66087e-48 2.2829e-48 1.40555e-48 8.54455e-49 5.12922e-49 3.04064e-49 1.78017e-49 1.02939e-49 5.87963e-50 3.31751e-50 1.84927e-50 1.01848e-50 5.54255e-51 2.9806e-51 1.58408e-51 8.32076e-52 4.32018e-52 2.21731e-52 1.12498e-52 5.64144e-53 2.79313e-53 1.35834e-53 6.33262e-54 2.48486e-54 0 
0 3.73046e-72 1.29582e-71 4.10408e-71 1.27945e-70 3.95364e-70 1.21174e-69 3.68359e-69 1.1106e-68 3.32081e-68 9.84712e-68 2.89553e-67 8.44256e-67 2.44075e-66 6.99603e-66 1.98807e-65 5.60066e-65 1.56403e-64 4.32938e-64 1.18782e-63 3.22996e-63 8.70431e-63 2.32452e-62 6.15132e-62 1.6129e-61 4.19011e-61 1.07842e-60 2.7496e-60 6.94443e-60 1.73724e-59 4.30434e-59 1.0562e-58 2.56653e-58 6.17555e-58 1.47129e-57 3.47044e-57 8.10398e-57 1.87329e-56 4.28619e-56 9.70645e-56 2.17539e-55 4.82466e-55 1.05879e-54 2.29897e-54 4.93851e-54 1.04945e-53 2.20593e-53 4.58614e-53 9.42949e-53 1.91724e-52 3.85451e-52 7.66177e-52 1.50561e-51 2.9247e-51 5.61553e-51 1.06561e-50 1.99833e-50 3.70298e-50 6.77964e-50 1.22629e-49 2.19112e-49 3.8671e-49 6.74072e-49 1.16034e-48 1.97235e-48 3.3102e-48 5.48478e-48 8.97131e-48 1.44845e-47 2.30814e-47 3.62988e-47 5.63323e-47 8.6262e-47 1.3033e-46 1.94265e-46 2.85656e-46 4.1434e-46 5.928e-46 8.36513e-46 1.1642e-45 1.59791e-45 2.16288e-45 2.88706e-45 3.80028e-45 4.93299e-45 6.31454e-45 7.97114e-45 9.92346e-45 1.21841e-44 1.47554e-44 1.76267e-44 2.07738e-44 2.41575e-44 2.77246e-44 3.14092e-44 3.51356e-44 3.88222e-44 4.23863e-44 4.57488e-44 4.88395e-44 5.16013e-44 5.39943e-44 5.59974e-44 5.76094e-44 5.88481e-44 5.9748e-44 6.03565e-44 6.07298e-44 6.09282e-44 6.10117e-44 6.10352e-44 6.10461e-44 6.10818e-44 6.11686e-44 6.1322e-44 6.15476e-44 6.18429e-44 6.21995e-44 6.26051e-44 6.3046e-44 6.35085e-44 6.39804e-44 6.44516e-44 6.49142e-44 6.53625e-44 6.57922e-44 6.61997e-44 6.6581e-44 6.69314e-44 6.72447e-44 6.7513e-44 6.77268e-44 6.78753e-44 6.79471e-44 6.79308e-44 6.78164e-44 6.75958e-44 6.72638e-44 6.68188e-44 6.62636e-44 6.56054e-44 6.48558e-44 6.40303e-44 6.31483e-44 6.22315e-44 6.13035e-44 6.03882e-44 5.95092e-44 5.86878e-44 5.79428e-44 5.72891e-44 5.67375e-44 5.62941e-44 5.59604e-44 5.57337e-44 5.56076e-44 5.55726e-44 5.56172e-44 5.57287e-44 5.58943e-44 5.61016e-44 5.63395e-44 5.65982e-44 5.68698e-44 5.71483e-44 5.74292e-44 5.77097e-44 5.79882e-44 5.82645e-44 5.85393e-44 5.88146e-44 5.90936e-44 5.93803e-44 5.968e-44 5.99985e-44 6.03423e-44 6.07173e-44 6.11283e-44 6.15784e-44 6.20672e-44 6.25905e-44 6.31393e-44 6.36987e-44 6.42484e-44 6.47622e-44 6.5209e-44 6.55531e-44 6.57562e-44 6.57784e-44 6.55803e-44 6.51249e-44 6.43791e-44 6.33163e-44 6.19174e-44 6.01726e-44 5.80825e-44 5.56583e-44 5.29226e-44 4.99086e-44 4.66592e-44 4.32255e-44 3.96649e-44 3.60386e-44 3.24091e-44 2.88372e-44 2.53797e-44 2.20871e-44 1.90017e-44 1.6156e-44 1.35728e-44 1.12643e-44 9.23347e-45 7.47439e-45 5.97414e-45 4.71424e-45 3.6723e-45 2.82368e-45 2.14296e-45 1.60512e-45 1.18654e-45 8.656e-46 6.23175e-46 4.42749e-46 3.10427e-46 2.14795e-46 1.46676e-46 9.88502e-47 6.575e-47 4.31651e-47 2.79711e-47 1.78917e-47 1.12975e-47 7.04253e-48 4.33435e-48 2.63388e-48 1.58044e-48 9.3649e-49 5.48032e-49 3.16754e-49 1.80837e-49 1.01985e-49 5.6821e-50 3.12782e-50 1.70126e-50 9.14404e-51 4.85712e-51 2.54996e-51 1.32323e-51 6.7877e-52 3.44195e-52 1.72509e-52 8.53641e-53 4.14919e-53 1.93344e-53 7.58397e-54 0 