# vtk DataFile Version 3.0
Gray-Scott Simulation Output
ASCII
DATASET STRUCTURED_POINTS
DIMENSIONS 256 256 1
SPACING 1.0 1.0 1.0
ORIGIN 0 0 0
POINT_DATA 65536
SCALARS u double
LOOKUP_TABLE default
0 0 0 0 0 0 0 0 0 0 0 0 0 0 0 0 0 0 0 0 0 0 0 0 0 0 0 0 0 0 0 0 0 0 0 0 0 0 0 0 0 0 0 0 0 0 0 0 0 0 0 0 0 0 0 0 0 0 0 0 0 0 0 0 0 0 0 0 0 0 0 0 0 0 0 0 0 0 0 0 0 0 0 0 0 0 0 0 0 0 0 0 0 0 0 0 0 0 0 0 0 0 0 0 0 0 0 0 0 0 0 0 0 0 0 0 0 0 0 0 0 0 0 0 0 0 0 0 0 0 0 0 0 0 0 0 0 0 0 0 0 0 0 0 0 0 0 0 0 0 0 0 0 0 0 0 0 0 0 0 0 0 0 0 0 0 0 0 0 0 0 0 0 0 0 0 0 0 0 0 0 0 0 0 0 0 0 0 0 0 0 0 0 0 0 0 0 0 0 0 0 0 0 0 0 0 0 0 0 0 0 0 0 0 0 0 0 0 0 0 0 0 0 0 0 0 0 0 0 0 0 0 0 0 0 0 0 0 0 0 0 0 0 0 0 0 0 0 0 0 0 0 0 0 0 0 
0 9.91247e-120 7.91287e-119 6.15817e-118 4.74304e-117 3.61585e-116 2.72818e-115 2.03706e-114 1.50507e-113 1.10024e-112 7.95714e-112 5.69265e-111 4.02824e-110 2.8191e-109 1.95099e-108 1.33505e-107 9.03203e-107 6.04048e-106 3.99301e-105 2.60868e-104 1.68413e-103 1.07427e-102 6.76974e-102 4.21402e-101 2.59075e-100 1.5729e-99 9.42882e-99 5.57999e-98 3.2596e-97 1.87924e-96 1.06911e-95 6.0008e-95 3.3226e-94 1.81448e-93 9.77145e-93 5.18826e-92 2.71558e-91 1.40088e-90 7.12122e-90 3.56648e-89 1.75943e-88 8.54791e-88 4.08898e-87 1.92551e-86 8.92386e-86 4.06951e-85 1.82563e-84 8.05492e-84 3.49448e-83 1.49028e-82 6.24606e-82 2.57208e-81 1.04036e-80 4.13221e-80 1.61124e-79 6.16575e-79 2.3149e-78 8.52441e-78 3.07782e-77 1.08925e-76 3.77725e-76 1.28302e-75 4.26726e-75 1.3892e-74 4.42507e-74 1.37863e-73 4.19934e-73 1.25009e-72 3.63541e-72 1.03236e-71 2.8615e-71 7.73829e-71 2.04076e-70 5.24609e-70 1.31394e-69 3.20482e-69 7.60877e-69 1.75751e-68 3.94768e-68 8.61857e-68 1.82795e-67 3.7646e-67 7.52471e-67 1.45906e-66 2.74328e-66 4.99905e-66 8.82565e-66 1.50896e-65 2.49764e-65 4.00098e-65 6.20128e-65 9.29806e-65 1.3485e-64 1.89168e-64 2.56697e-64 3.37025e-64 4.28278e-64 5.2704e-64 6.28537e-64 7.27128e-64 8.17017e-64 8.93087e-64 9.5168e-64 9.91166e-64 1.0122e-63 1.01763e-63 1.01203e-63 1.00108e-63 9.90732e-64 9.86421e-64 9.92371e-64 1.01107e-63 1.04298e-63 1.08659e-63 1.13869e-63 1.19491e-63 1.25048e-63 1.30099e-63 1.34303e-63 1.37473e-63 1.39586e-63 1.40777e-63 1.41296e-63 1.41458e-63 1.41579e-63 1.41933e-63 1.42707e-63 1.43993e-63 1.45785e-63 1.47997e-63 1.50486e-63 1.53076e-63 1.55577e-63 1.57794e-63 1.59536e-63 1.60621e-63 1.60886e-63 1.60199e-63 1.58476e-63 1.55695e-63 1.51908e-63 1.47239e-63 1.41868e-63 1.36012e-63 1.299e-63 1.23756e-63 1.17783e-63 1.12167e-63 1.07078e-63 1.02677e-63 9.91123e-64 9.65098e-64 9.49515e-64 9.44535e-64 9.49478e-64 9.62786e-64 9.82165e-64 1.00489e-63 1.02822e-63 1.04981e-63 1.06805e-63 1.08226e-63 1.09269e-63 1.10035e-63 1.10676e-63 1.11361e-63 1.12234e-63 1.13388e-63 1.14839e-63 1.16517e-63 1.18275e-63 1.19916e-63 1.21236e-63 1.22074e-63 1.22353e-63 1.22113e-63 1.21526e-63 1.20871e-63 1.20499e-63 1.20772e-63 1.21999e-63 1.24378e-63 1.27946e-63 1.32567e-63 1.37934e-63 1.43606e-63 1.4906e-63 1.53756e-63 1.57196e-63 1.58975e-63 1.58812e-63 1.56561e-63 1.522e-63 1.45816e-63 1.37586e-63 1.27755e-63 1.16627e-63 1.04556e-63 9.19328e-64 7.91742e-64 6.66952e-64 5.48818e-64 4.40606e-64 3.44728e-64 2.62593e-64 1.94585e-64 1.40171e-64 9.81029e-65 6.66801e-65 4.4001e-65 2.81828e-65 1.75189e-65 1.05684e-65 6.18726e-66 3.51573e-66 1.93919e-66 1.03848e-66 5.40063e-67 2.72823e-67 1.33916e-67 6.38919e-68 2.96392e-68 1.33738e-68 5.87183e-69 2.50953e-69 1.04443e-69 4.23463e-70 1.67329e-70 6.44647e-71 2.4224e-71 8.88208e-72 3.17911e-72 1.11119e-72 3.79428e-73 1.26619e-73 4.13108e-74 1.3182e-74 4.11538e-75 1.2575e-75 3.76204e-76 1.10232e-76 3.16451e-77 8.90349e-78 2.45589e-78 6.64337e-79 1.76291e-79 4.59055e-80 1.17332e-80 2.94449e-81 7.25711e-82 1.75709e-82 4.18038e-83 9.77451e-84 2.24209e-84 4.8337e-85 0 
0 7.91439e-119 6.31636e-118 4.9145e-117 3.78425e-116 2.88422e-115 2.17565e-114 1.62411e-113 1.19968e-112 8.76792e-112 6.33963e-111 4.53442e-110 3.20791e-109 2.2445e-108 1.55298e-107 1.06245e-106 7.18627e-106 4.805e-105 3.17562e-104 2.07422e-103 1.33881e-102 8.53813e-102 5.37937e-101 3.34785e-100 2.05781e-99 1.24909e-98 7.48622e-98 4.42948e-97 2.58701e-96 1.49119e-95 8.48183e-95 4.75989e-94 2.63503e-93 1.43873e-92 7.74658e-92 4.11241e-91 2.15209e-90 1.11001e-89 5.64166e-89 2.82502e-88 1.39342e-87 6.76866e-87 3.23736e-86 1.52425e-85 7.06317e-85 3.22053e-84 1.44456e-83 6.37274e-83 2.76433e-82 1.17874e-81 4.93973e-81 2.03389e-80 8.22575e-80 3.26683e-79 1.27367e-78 4.87346e-78 1.82953e-77 6.73644e-77 2.43204e-76 8.60632e-76 2.9842e-75 1.01356e-74 3.37081e-74 1.09729e-73 3.495e-73 1.0888e-72 3.31631e-72 9.87174e-72 2.87068e-71 8.15165e-71 2.25938e-70 6.10977e-70 1.61123e-69 4.1418e-69 1.03733e-68 2.5301e-68 6.00678e-68 1.38746e-67 3.11644e-67 6.80376e-67 1.44303e-66 2.97187e-66 5.94021e-66 1.15182e-65 2.16563e-65 3.94644e-65 6.96736e-65 1.19125e-64 1.97179e-64 3.15866e-64 4.8958e-64 7.34075e-64 1.06465e-63 1.49352e-63 2.02671e-63 2.66099e-63 3.38158e-63 4.16151e-63 4.96312e-63 5.74187e-63 6.45204e-63 7.05321e-63 7.51649e-63 7.82901e-63 7.99591e-63 8.03956e-63 7.99612e-63 7.91028e-63 7.82897e-63 7.79509e-63 7.84192e-63 7.98907e-63 8.24031e-63 8.58369e-63 8.99389e-63 9.43662e-63 9.8743e-63 1.02721e-62 1.06033e-62 1.08531e-62 1.10197e-62 1.11137e-62 1.11548e-62 1.11677e-62 1.11775e-62 1.12054e-62 1.12664e-62 1.13677e-62 1.15087e-62 1.16828e-62 1.18786e-62 1.20825e-62 1.22792e-62 1.24537e-62 1.25907e-62 1.26761e-62 1.2697e-62 1.2643e-62 1.25073e-62 1.22884e-62 1.19903e-62 1.16227e-62 1.11997e-62 1.07385e-62 1.02571e-62 9.77305e-63 9.30243e-63 8.85982e-63 8.45869e-63 8.1117e-63 7.83061e-63 7.62536e-63 7.50244e-63 7.46315e-63 7.50213e-63 7.60712e-63 7.76003e-63 7.93937e-63 8.12349e-63 8.2939e-63 8.4379e-63 8.55009e-63 8.63239e-63 8.69283e-63 8.74341e-63 8.79732e-63 8.86607e-63 8.95697e-63 9.07123e-63 9.20336e-63 9.3418e-63 9.4711e-63 9.57521e-63 9.6413e-63 9.66335e-63 9.64464e-63 9.5985e-63 9.547e-63 9.51772e-63 9.53921e-63 9.63581e-63 9.82296e-63 1.01038e-62 1.04674e-62 1.08898e-62 1.13361e-62 1.17654e-62 1.21349e-62 1.24055e-62 1.25454e-62 1.25324e-62 1.23549e-62 1.20111e-62 1.1508e-62 1.08593e-62 1.00842e-62 9.20678e-63 8.25473e-63 7.259e-63 6.25233e-63 5.26751e-63 4.33502e-63 3.48069e-63 2.72359e-63 2.0749e-63 1.53769e-63 1.1078e-63 7.75399e-64 5.27082e-64 3.47839e-64 2.22809e-64 1.3851e-64 8.3562e-65 4.8924e-65 2.78009e-65 1.53349e-65 8.21246e-66 4.27105e-66 2.15766e-66 1.05912e-66 5.05323e-67 2.34423e-67 1.05778e-67 4.64435e-68 1.98496e-68 8.26136e-69 3.34963e-69 1.32362e-69 5.09948e-70 1.91629e-70 7.02662e-71 2.51508e-71 8.79125e-72 3.00201e-72 1.00185e-72 3.2688e-73 1.04311e-73 3.25674e-74 9.95193e-75 2.9775e-75 8.72503e-76 2.50494e-76 7.04833e-77 1.94433e-77 5.26003e-78 1.39595e-78 3.63534e-79 9.29267e-80 2.33227e-80 5.74882e-81 1.39206e-81 3.3123e-82 7.74571e-83 1.77694e-83 3.83132e-84 0 
0 6.16059e-118 4.91549e-117 3.82359e-116 2.9435e-115 2.24288e-114 1.69145e-113 1.26235e-112 9.32236e-112 6.81167e-111 4.92399e-110 3.52105e-109 2.49041e-108 1.74208e-107 1.20507e-106 8.24251e-106 5.57383e-105 3.72603e-104 2.46198e-103 1.60774e-102 1.03749e-101 6.61508e-101 4.16688e-100 2.59271e-99 1.59332e-98 9.66941e-98 5.79404e-97 3.42756e-96 2.00145e-95 1.15344e-94 6.55942e-94 3.68036e-93 2.03703e-92 1.11202e-91 5.98636e-91 3.17739e-90 1.66249e-89 8.57333e-89 4.3567e-88 2.18122e-87 1.0757e-86 5.22447e-86 2.49841e-85 1.17615e-84 5.4493e-84 2.48431e-83 1.11418e-82 4.91455e-82 2.13152e-81 9.0879e-81 3.80797e-80 1.56771e-79 6.33962e-79 2.51748e-78 9.81405e-78 3.75479e-77 1.40944e-76 5.18913e-76 1.87325e-75 6.62835e-75 2.29816e-74 7.80496e-74 2.59551e-73 8.44851e-73 2.69079e-72 8.38217e-72 2.55294e-71 7.59903e-71 2.20968e-70 6.27442e-70 1.73901e-69 4.70245e-69 1.24007e-68 3.18763e-68 7.98341e-68 1.94716e-67 4.62276e-67 1.06777e-66 2.39836e-66 5.23605e-66 1.11053e-65 2.28711e-65 4.57153e-65 8.86441e-65 1.66668e-64 3.03724e-64 5.36226e-64 9.16832e-64 1.51758e-63 2.4311e-63 3.76818e-63 5.6501e-63 8.19464e-63 1.14959e-62 1.56004e-62 2.04833e-62 2.60308e-62 3.20357e-62 3.8208e-62 4.42052e-62 4.96753e-62 5.43073e-62 5.78787e-62 6.02903e-62 6.15814e-62 6.19238e-62 6.15954e-62 6.09394e-62 6.03168e-62 6.00571e-62 6.04163e-62 6.15453e-62 6.34732e-62 6.61085e-62 6.9257e-62 7.26555e-62 7.60156e-62 7.907e-62 8.16138e-62 8.35325e-62 8.48131e-62 8.55363e-62 8.58535e-62 8.59541e-62 8.60301e-62 8.62454e-62 8.67141e-62 8.74912e-62 8.85731e-62 8.99082e-62 9.14106e-62 9.2974e-62 9.44832e-62 9.58211e-62 9.68724e-62 9.75276e-62 9.7688e-62 9.72735e-62 9.62328e-62 9.45531e-62 9.22655e-62 8.94439e-62 8.61972e-62 8.26565e-62 7.89602e-62 7.52428e-62 7.16279e-62 6.82276e-62 6.51453e-62 6.24785e-62 6.03179e-62 5.87398e-62 5.77947e-62 5.74924e-62 5.77921e-62 5.85997e-62 5.97759e-62 6.11556e-62 6.25722e-62 6.38834e-62 6.49916e-62 6.5855e-62 6.64883e-62 6.69532e-62 6.73419e-62 6.77558e-62 6.82835e-62 6.89811e-62 6.98581e-62 7.08725e-62 7.19355e-62 7.29287e-62 7.37286e-62 7.42369e-62 7.44071e-62 7.42645e-62 7.39111e-62 7.35164e-62 7.32919e-62 7.34567e-62 7.41976e-62 7.56332e-62 7.77872e-62 8.05767e-62 8.38167e-62 8.72409e-62 9.05336e-62 9.3368e-62 9.54435e-62 9.65156e-62 9.64141e-62 9.50495e-62 9.24084e-62 8.85428e-62 8.35579e-62 7.76015e-62 7.08567e-62 6.3537e-62 5.58796e-62 4.81363e-62 4.05594e-62 3.33836e-62 2.68078e-62 2.09792e-62 1.59844e-62 1.18472e-62 8.53596e-63 5.9753e-63 4.06211e-63 2.68094e-63 1.7174e-63 1.0677e-63 6.44172e-64 3.7717e-64 2.14335e-64 1.18231e-64 6.33197e-65 3.29316e-65 1.66368e-65 8.16666e-66 3.8965e-66 1.80765e-66 8.15676e-67 3.5814e-67 1.53069e-67 6.37081e-68 2.58314e-68 1.02076e-68 3.93274e-69 1.47789e-69 5.41925e-70 1.93981e-70 6.78066e-71 2.31553e-71 7.72786e-72 2.52153e-72 8.04686e-73 2.51249e-73 7.6781e-74 2.29734e-74 6.7324e-75 1.933e-75 5.43942e-76 1.50063e-76 4.06001e-77 1.07757e-77 2.80649e-78 7.17465e-79 1.80087e-79 4.43946e-80 1.07512e-80 2.55846e-81 5.98359e-82 1.37286e-82 2.96041e-83 0 
0 4.74588e-117 3.78578e-116 2.9441e-115 2.26588e-114 1.72613e-113 1.30143e-112 9.71041e-112 7.16934e-111 5.23725e-110 3.78499e-109 2.70594e-108 1.91345e-107 1.33817e-106 9.25463e-106 6.32858e-105 4.27861e-104 2.85956e-103 1.88904e-102 1.23333e-101 7.95706e-101 5.07236e-100 3.19443e-99 1.98722e-98 1.22097e-97 7.40823e-97 4.43822e-96 2.62497e-95 1.5325e-94 8.83008e-94 5.02058e-93 2.81642e-92 1.55856e-91 8.50667e-91 4.57859e-90 2.42977e-89 1.2711e-88 6.55382e-88 3.32989e-87 1.66687e-86 8.2191e-86 3.99124e-85 1.90837e-84 8.98249e-84 4.16116e-83 1.89678e-82 8.50564e-82 3.75128e-81 1.62678e-80 6.93504e-80 2.90554e-79 1.19605e-78 4.83613e-78 1.92023e-77 7.485e-77 2.86343e-76 1.07475e-75 3.95655e-75 1.42817e-74 5.05308e-74 1.75186e-73 5.9492e-73 1.97826e-72 6.43892e-72 2.05063e-71 6.38768e-71 1.94539e-70 5.79037e-70 1.68369e-69 4.7807e-69 1.32498e-68 3.58278e-68 9.44785e-68 2.42856e-67 6.08224e-67 1.48345e-66 3.52186e-66 8.13479e-66 1.8272e-65 3.98912e-65 8.46075e-65 1.74249e-64 3.48297e-64 6.75373e-64 1.26986e-63 2.31413e-63 4.08569e-63 6.98579e-63 1.15634e-62 1.85245e-62 2.87134e-62 4.30546e-62 6.24458e-62 8.76049e-62 1.18886e-61 1.56101e-61 1.98385e-61 2.44157e-61 2.91211e-61 3.36936e-61 3.7865e-61 4.13984e-61 4.41242e-61 4.59666e-61 4.69554e-61 4.72212e-61 4.69753e-61 4.64791e-61 4.6007e-61 4.58099e-61 4.60827e-61 4.69401e-61 4.84047e-61 5.04068e-61 5.27992e-61 5.53818e-61 5.79356e-61 6.02573e-61 6.21912e-61 6.36503e-61 6.46247e-61 6.51756e-61 6.54179e-61 6.54955e-61 6.55541e-61 6.57183e-61 6.60748e-61 6.66651e-61 6.74869e-61 6.85007e-61 6.96415e-61 7.08286e-61 7.19745e-61 7.29904e-61 7.37887e-61 7.42864e-61 7.44083e-61 7.40936e-61 7.33032e-61 7.20274e-61 7.02895e-61 6.81457e-61 6.56786e-61 6.29876e-61 6.01779e-61 5.73517e-61 5.46029e-61 5.20168e-61 4.96722e-61 4.76432e-61 4.5999e-61 4.4798e-61 4.40785e-61 4.38483e-61 4.40765e-61 4.46914e-61 4.55871e-61 4.66379e-61 4.77169e-61 4.87157e-61 4.956e-61 5.02178e-61 5.07002e-61 5.10543e-61 5.135e-61 5.16646e-61 5.20655e-61 5.25954e-61 5.32618e-61 5.40327e-61 5.48408e-61 5.5596e-61 5.62045e-61 5.65914e-61 5.67216e-61 5.66139e-61 5.6346e-61 5.60464e-61 5.5876e-61 5.60011e-61 5.65637e-61 5.76538e-61 5.92895e-61 6.14079e-61 6.38684e-61 6.64688e-61 6.89692e-61 7.11215e-61 7.26974e-61 7.35107e-61 7.34323e-61 7.23939e-61 7.0385e-61 6.74448e-61 6.36528e-61 5.9121e-61 5.39883e-61 4.84169e-61 4.25871e-61 3.66905e-61 3.09192e-61 2.54523e-61 2.04413e-61 1.5999e-61 1.21913e-61 9.0369e-62 6.51179e-62 4.5588e-62 3.09942e-62 2.04574e-62 1.31059e-62 8.14841e-63 4.91642e-63 2.87875e-63 1.63598e-63 9.02469e-64 4.83338e-64 2.51382e-64 1.26999e-64 6.23422e-65 2.97453e-65 1.37995e-65 6.22689e-66 2.73408e-66 1.16856e-66 4.86364e-67 1.97206e-67 7.79293e-68 3.00249e-68 1.12833e-68 4.13754e-69 1.48106e-69 5.17724e-70 1.76803e-70 5.90085e-71 1.92547e-71 6.14495e-72 1.91875e-72 5.86394e-73 1.75463e-73 5.14229e-74 1.47655e-74 4.15527e-75 1.14644e-75 3.10199e-76 8.23373e-77 2.14463e-77 5.48314e-78 1.37643e-78 3.39348e-79 8.21901e-80 1.95609e-80 4.57531e-81 1.04987e-81 2.26418e-82 0 
0 3.61877e-116 2.88599e-115 2.24381e-114 1.72649e-113 1.31491e-112 9.91146e-112 7.39349e-111 5.45743e-110 3.98574e-109 2.87984e-108 2.05836e-107 1.45519e-106 1.01746e-105 7.035e-105 4.80965e-104 3.25098e-103 2.17227e-102 1.4347e-101 9.36493e-101 6.04069e-100 3.84992e-99 2.42407e-98 1.50767e-97 9.26144e-97 5.61823e-96 3.36517e-95 1.98993e-94 1.16152e-93 6.69131e-93 3.80381e-92 2.13345e-91 1.1804e-90 6.44151e-90 3.46644e-89 1.83925e-88 9.62016e-88 4.95937e-87 2.51937e-86 1.26094e-85 6.21654e-85 3.01833e-84 1.44297e-83 6.79093e-83 3.14547e-82 1.43361e-81 6.42779e-81 2.83451e-80 1.22907e-79 5.23893e-79 2.19468e-78 9.03326e-78 3.65214e-77 1.44997e-76 5.65138e-76 2.16176e-75 8.11315e-75 2.98651e-74 1.07794e-73 3.81362e-73 1.32206e-72 4.48934e-72 1.49273e-71 4.85834e-71 1.54718e-70 4.81922e-70 1.46765e-69 4.36825e-69 1.27014e-68 3.60636e-68 9.99484e-68 2.70259e-67 7.1267e-67 1.83189e-66 4.5879e-66 1.11899e-65 2.65658e-65 6.13621e-65 1.3783e-64 3.00913e-64 6.38233e-64 1.31446e-63 2.62746e-63 5.09495e-63 9.57988e-63 1.74584e-62 3.08242e-62 5.27052e-62 8.72442e-62 1.39768e-61 2.16649e-61 3.24865e-61 4.71193e-61 6.61051e-61 8.97121e-61 1.17798e-60 1.49712e-60 1.8426e-60 2.1978e-60 2.54301e-60 2.858e-60 3.12489e-60 3.33089e-60 3.47027e-60 3.54525e-60 3.56568e-60 3.54746e-60 3.51029e-60 3.47484e-60 3.46003e-60 3.48052e-60 3.545e-60 3.65515e-60 3.80577e-60 3.98576e-60 4.18008e-60 4.37226e-60 4.54699e-60 4.69257e-60 4.80244e-60 4.87584e-60 4.91739e-60 4.93571e-60 4.94163e-60 4.94611e-60 4.95851e-60 4.98535e-60 5.02976e-60 5.09156e-60 5.16779e-60 5.25355e-60 5.3428e-60 5.42895e-60 5.50532e-60 5.56535e-60 5.60278e-60 5.61196e-60 5.5883e-60 5.52887e-60 5.43292e-60 5.3022e-60 5.14092e-60 4.9553e-60 4.7528e-60 4.54133e-60 4.32859e-60 4.12164e-60 3.92689e-60 3.7503e-60 3.59745e-60 3.47357e-60 3.38306e-60 3.32883e-60 3.31148e-60 3.32868e-60 3.37504e-60 3.44258e-60 3.52182e-60 3.6032e-60 3.67853e-60 3.74222e-60 3.79184e-60 3.82822e-60 3.85491e-60 3.87719e-60 3.90086e-60 3.93101e-60 3.97087e-60 4.02101e-60 4.07902e-60 4.13984e-60 4.1967e-60 4.24253e-60 4.2717e-60 4.28155e-60 4.2735e-60 4.25339e-60 4.23087e-60 4.21806e-60 4.22746e-60 4.26975e-60 4.35171e-60 4.4747e-60 4.63398e-60 4.819e-60 5.01452e-60 5.20253e-60 5.36436e-60 5.48282e-60 5.54392e-60 5.53793e-60 5.45969e-60 5.30839e-60 5.08696e-60 4.80135e-60 4.45995e-60 4.07321e-60 3.65331e-60 3.21383e-60 2.76921e-60 2.33393e-60 1.92152e-60 1.54342e-60 1.20815e-60 9.20727e-61 6.82574e-61 4.919e-61 3.44404e-61 2.34173e-61 1.54576e-61 9.90349e-62 6.15774e-62 3.71552e-62 2.17568e-62 1.23647e-62 6.82106e-63 3.65326e-63 1.90008e-63 9.59943e-64 4.71228e-64 2.24839e-64 1.04308e-64 4.70682e-65 2.06666e-65 8.83304e-66 3.67641e-66 1.49068e-66 5.89072e-67 2.26962e-67 8.5293e-68 3.12771e-68 1.1196e-68 3.9138e-69 1.3366e-69 4.46107e-70 1.45571e-70 4.64594e-71 1.45074e-71 4.43387e-72 1.32679e-72 3.88863e-73 1.11664e-73 3.14263e-74 8.67112e-75 2.34637e-75 6.22855e-76 1.62247e-76 4.14852e-77 1.0415e-77 2.56798e-78 6.22027e-79 1.48055e-79 3.46341e-80 7.94821e-81 1.71431e-81 0 
0 2.73096e-115 2.17744e-114 1.6925e-113 1.30198e-112 9.91355e-112 7.47081e-111 5.57155e-110 4.11161e-109 3.00215e-108 2.16865e-107 1.54968e-106 1.09532e-105 7.65667e-105 5.29285e-104 3.61778e-103 2.44482e-102 1.63325e-101 1.07847e-100 7.03811e-100 4.53885e-99 2.89215e-98 1.82064e-97 1.13213e-96 6.95315e-96 4.21712e-95 2.52545e-94 1.49309e-93 8.71351e-93 5.01874e-92 2.85247e-91 1.59958e-90 8.84861e-90 4.82789e-89 2.59764e-88 1.37804e-87 7.20663e-87 3.71454e-86 1.8867e-85 9.44143e-85 4.654e-84 2.25933e-83 1.07996e-82 5.08182e-82 2.35351e-81 1.07252e-80 4.80818e-80 2.12004e-79 9.19154e-79 3.91747e-78 1.64091e-77 6.75327e-77 2.73006e-76 1.08378e-75 4.22375e-75 1.61553e-74 6.06261e-74 2.23152e-73 8.05376e-73 2.84914e-72 9.87641e-72 3.35356e-71 1.11502e-70 3.62884e-70 1.15559e-69 3.59933e-69 1.09611e-68 3.26232e-68 9.48547e-68 2.6932e-67 7.46398e-67 2.01823e-66 5.32202e-66 1.36801e-65 3.42613e-65 8.35636e-65 1.9839e-64 4.58251e-64 1.02933e-63 2.2473e-63 4.7666e-63 9.8172e-63 1.9624e-62 3.80543e-62 7.15544e-62 1.30405e-61 2.30248e-61 3.93704e-61 6.51728e-61 1.04412e-60 1.6185e-60 2.42702e-60 3.52032e-60 4.93892e-60 6.70288e-60 8.80163e-60 1.11865e-59 1.37685e-59 1.64233e-59 1.90038e-59 2.13589e-59 2.3355e-59 2.48965e-59 2.59404e-59 2.65034e-59 2.66587e-59 2.65251e-59 2.62493e-59 2.59858e-59 2.58755e-59 2.6028e-59 2.6508e-59 2.73282e-59 2.845e-59 2.97906e-59 3.12383e-59 3.267e-59 3.39721e-59 3.5057e-59 3.58761e-59 3.64236e-59 3.67338e-59 3.6871e-59 3.69157e-59 3.69495e-59 3.70422e-59 3.72423e-59 3.7573e-59 3.80331e-59 3.86006e-59 3.92389e-59 3.99032e-59 4.05445e-59 4.1113e-59 4.15598e-59 4.18385e-59 4.19069e-59 4.17309e-59 4.12885e-59 4.0574e-59 3.96006e-59 3.83994e-59 3.70167e-59 3.5508e-59 3.39323e-59 3.23468e-59 3.08041e-59 2.93522e-59 2.80354e-59 2.68954e-59 2.59713e-59 2.5296e-59 2.48913e-59 2.47618e-59 2.48902e-59 2.52363e-59 2.57406e-59 2.63322e-59 2.69398e-59 2.75024e-59 2.7978e-59 2.83485e-59 2.86202e-59 2.88194e-59 2.89855e-59 2.91618e-59 2.93863e-59 2.96832e-59 3.00567e-59 3.04889e-59 3.09421e-59 3.13659e-59 3.17077e-59 3.19254e-59 3.19992e-59 3.19396e-59 3.17901e-59 3.16226e-59 3.15272e-59 3.15971e-59 3.19118e-59 3.25219e-59 3.34374e-59 3.46231e-59 3.60005e-59 3.74561e-59 3.88557e-59 4.00603e-59 4.0942e-59 4.13964e-59 4.13511e-59 4.07674e-59 3.96393e-59 3.79882e-59 3.58584e-59 3.33121e-59 3.04269e-59 2.72937e-59 2.40135e-59 2.06941e-59 1.74437e-59 1.43633e-59 1.15385e-59 9.03322e-60 6.88502e-60 5.10474e-60 3.67914e-60 2.57621e-60 1.75181e-60 1.15645e-60 7.40974e-61 4.60745e-61 2.78023e-61 1.62807e-61 9.25291e-62 5.10454e-62 2.73397e-62 1.42198e-62 7.18404e-63 3.5266e-63 1.68266e-63 7.80626e-64 3.52252e-64 1.54665e-64 6.61048e-65 2.75135e-65 1.11559e-65 4.40849e-66 1.69854e-66 6.3832e-67 2.34074e-67 8.37909e-68 2.92913e-68 1.00034e-68 3.33884e-69 1.08954e-69 3.47741e-70 1.08589e-70 3.31892e-71 9.93197e-72 2.91106e-72 8.35971e-73 2.35286e-73 6.49242e-74 1.75694e-74 4.66422e-75 1.21508e-75 3.1071e-76 7.80114e-77 1.92367e-77 4.66005e-78 1.1093e-78 2.59523e-79 5.95644e-80 1.28485e-80 0 
0 2.03957e-114 1.6258e-113 1.26341e-112 9.71657e-112 7.39664e-111 5.57275e-110 4.15504e-109 3.06556e-108 2.23784e-107 1.61617e-106 1.15462e-105 8.15905e-105 5.70218e-104 3.94089e-103 2.69309e-102 1.81954e-101 1.21527e-100 8.02294e-100 5.23469e-99 3.37513e-98 2.15018e-97 1.35329e-96 8.41348e-96 5.16623e-95 3.13273e-94 1.87569e-93 1.10873e-92 6.46921e-92 3.7254e-91 2.117e-90 1.18694e-89 6.56478e-89 3.5812e-88 1.92653e-87 1.02185e-86 5.34302e-86 2.75354e-85 1.39837e-84 6.99666e-84 3.44838e-83 1.67381e-82 7.99972e-82 3.7638e-81 1.74288e-80 7.94143e-80 3.55977e-79 1.5694e-78 6.80344e-78 2.89934e-77 1.21432e-76 4.99709e-76 2.01992e-75 8.01797e-75 3.12452e-74 1.19499e-73 4.48411e-73 1.65039e-72 5.95601e-72 2.1069e-71 7.30305e-71 2.47964e-70 8.24412e-70 2.68295e-69 8.54345e-69 2.66096e-68 8.10327e-68 2.4117e-67 7.01211e-67 1.99092e-66 5.51763e-66 1.49195e-65 3.93423e-65 1.01129e-64 2.53276e-64 6.17753e-64 1.46665e-63 3.38781e-63 7.60993e-63 1.66149e-62 3.5242e-62 7.2586e-62 1.451e-61 2.81384e-61 5.29112e-61 9.64319e-61 1.7027e-60 2.91158e-60 4.81993e-60 7.7222e-60 1.19707e-59 1.79512e-59 2.60386e-59 3.65327e-59 4.95822e-59 6.51093e-59 8.27542e-59 1.01859e-58 1.21504e-58 1.40602e-58 1.58035e-58 1.72816e-58 1.84235e-58 1.91976e-58 1.96161e-58 1.9733e-58 1.96359e-58 1.94335e-58 1.92395e-58 1.91581e-58 1.92704e-58 1.96241e-58 2.02287e-58 2.10558e-58 2.20444e-58 2.3112e-58 2.41681e-58 2.51285e-58 2.5929e-58 2.65335e-58 2.69377e-58 2.7167e-58 2.72687e-58 2.73021e-58 2.73274e-58 2.7396e-58 2.75436e-58 2.77875e-58 2.81266e-58 2.85447e-58 2.90151e-58 2.95046e-58 2.99771e-58 3.0396e-58 3.07254e-58 3.09308e-58 3.09813e-58 3.08516e-58 3.05256e-58 2.9999e-58 2.92814e-58 2.83957e-58 2.7376e-58 2.62633e-58 2.5101e-58 2.39312e-58 2.27928e-58 2.17212e-58 2.07491e-58 1.99074e-58 1.92249e-58 1.87262e-58 1.84273e-58 1.83316e-58 1.84265e-58 1.86822e-58 1.90549e-58 1.94923e-58 1.99414e-58 2.03573e-58 2.07089e-58 2.09829e-58 2.11837e-58 2.13308e-58 2.14534e-58 2.15834e-58 2.17489e-58 2.19678e-58 2.22432e-58 2.25619e-58 2.28963e-58 2.3209e-58 2.34613e-58 2.36222e-58 2.36769e-58 2.36332e-58 2.35232e-58 2.33998e-58 2.33295e-58 2.3381e-58 2.36128e-58 2.40624e-58 2.4737e-58 2.56109e-58 2.66259e-58 2.76987e-58 2.87301e-58 2.96179e-58 3.02675e-58 3.06021e-58 3.05682e-58 3.01372e-58 2.93044e-58 2.80857e-58 2.65133e-58 2.46331e-58 2.25023e-58 2.01877e-58 1.77639e-58 1.53105e-58 1.29075e-58 1.06296e-58 8.54027e-59 6.68684e-59 5.09727e-59 3.77969e-59 2.72443e-59 1.90788e-59 1.29747e-59 8.56582e-60 5.48876e-60 3.41316e-60 2.05967e-60 1.20617e-60 6.85526e-61 3.78191e-61 2.02561e-61 1.05355e-61 5.32274e-62 2.6129e-62 1.2467e-62 5.78367e-63 2.60982e-63 1.1459e-63 4.89758e-64 2.0384e-64 8.26506e-65 3.26609e-65 1.25838e-65 4.72904e-66 1.73416e-66 6.20773e-67 2.17009e-67 7.41129e-68 2.4737e-68 8.07242e-69 2.57647e-69 8.04582e-70 2.4592e-70 7.3595e-71 2.15716e-71 6.19503e-72 1.7437e-72 4.81179e-73 1.30222e-73 3.45728e-74 9.00722e-75 2.30344e-75 5.78381e-76 1.42634e-76 3.4556e-77 8.22667e-78 1.92483e-78 4.41824e-79 9.53141e-80 0 
0 1.50725e-113 1.20119e-112 9.33223e-112 7.17546e-111 5.46095e-110 4.1134e-109 3.06623e-108 2.26171e-107 1.65065e-106 1.19183e-105 8.51273e-105 6.01412e-104 4.2022e-103 2.90358e-102 1.98379e-101 1.34002e-100 8.9481e-100 5.90609e-99 3.85271e-98 2.48357e-97 1.58188e-96 9.95405e-96 6.18727e-95 3.7985e-94 2.30291e-93 1.37858e-92 8.14733e-92 4.75293e-91 2.73655e-90 1.5548e-89 8.71574e-89 4.81973e-88 2.6288e-87 1.41395e-86 7.49852e-86 3.92017e-85 2.01996e-84 1.02567e-83 5.13112e-83 2.52857e-82 1.22717e-81 5.86428e-81 2.75873e-80 1.27731e-79 5.81934e-79 2.60823e-78 1.14976e-77 4.98374e-77 2.12364e-76 8.89346e-76 3.65943e-75 1.47908e-74 5.87063e-74 2.28754e-73 8.74815e-73 3.28245e-72 1.20803e-71 4.35936e-71 1.54201e-70 5.34474e-70 1.81465e-69 6.03296e-69 1.96329e-68 6.25162e-68 1.9471e-67 5.92928e-67 1.76465e-66 5.13075e-66 1.45675e-65 4.03724e-65 1.09166e-64 2.87872e-64 7.39981e-64 1.85331e-63 4.52042e-63 1.07325e-62 2.47918e-62 5.56909e-62 1.21596e-61 2.57926e-61 5.31258e-61 1.06203e-60 2.05962e-60 3.87307e-60 7.05908e-60 1.24647e-59 2.13154e-59 3.52878e-59 5.65382e-59 8.76471e-59 1.31441e-58 1.90664e-58 2.67516e-58 3.63087e-58 4.76807e-58 6.06047e-58 7.4599e-58 8.89905e-58 1.02983e-57 1.15758e-57 1.26592e-57 1.34967e-57 1.4065e-57 1.43729e-57 1.44599e-57 1.43902e-57 1.4243e-57 1.41016e-57 1.40422e-57 1.4124e-57 1.4382e-57 1.48232e-57 1.54268e-57 1.61484e-57 1.69278e-57 1.76988e-57 1.84002e-57 1.89848e-57 1.94264e-57 1.97218e-57 1.98896e-57 1.99642e-57 1.99889e-57 2.00076e-57 2.00578e-57 2.01657e-57 2.03436e-57 2.0591e-57 2.08961e-57 2.12392e-57 2.15962e-57 2.19409e-57 2.22465e-57 2.24867e-57 2.26366e-57 2.26735e-57 2.2579e-57 2.23412e-57 2.19569e-57 2.14333e-57 2.07868e-57 2.00425e-57 1.92301e-57 1.83814e-57 1.75271e-57 1.66955e-57 1.59126e-57 1.52023e-57 1.45871e-57 1.40882e-57 1.37235e-57 1.35049e-57 1.3435e-57 1.35044e-57 1.36915e-57 1.39642e-57 1.42842e-57 1.46129e-57 1.49172e-57 1.51745e-57 1.5375e-57 1.55219e-57 1.56295e-57 1.57191e-57 1.5814e-57 1.59347e-57 1.60944e-57 1.62954e-57 1.65281e-57 1.67723e-57 1.70008e-57 1.71851e-57 1.73028e-57 1.7343e-57 1.73113e-57 1.72311e-57 1.71411e-57 1.70898e-57 1.71273e-57 1.72964e-57 1.76243e-57 1.81164e-57 1.87539e-57 1.94944e-57 2.0277e-57 2.10295e-57 2.1677e-57 2.21508e-57 2.23947e-57 2.23696e-57 2.20545e-57 2.1446e-57 2.05555e-57 1.94064e-57 1.80322e-57 1.64743e-57 1.47817e-57 1.30087e-57 1.12137e-57 9.45503e-58 7.78751e-58 6.25769e-58 4.90028e-58 3.73586e-58 2.77052e-58 1.99722e-58 1.39877e-58 9.51322e-59 6.28106e-59 4.02501e-59 2.50307e-59 1.51054e-59 8.8462e-60 5.02787e-60 2.77383e-60 1.48569e-60 7.72733e-61 3.90397e-61 1.91642e-61 9.14375e-62 4.24191e-62 1.91408e-62 8.40407e-63 3.59184e-63 1.49492e-63 6.06133e-64 2.39521e-64 9.22829e-65 3.468e-65 1.27172e-65 4.55233e-66 1.5914e-66 5.43496e-67 1.81407e-67 5.91991e-68 1.88949e-68 5.90063e-69 1.80357e-69 5.39761e-70 1.58216e-70 4.54391e-71 1.27902e-71 3.52967e-72 9.55291e-73 2.53638e-73 6.60843e-74 1.69011e-74 4.2441e-75 1.04672e-75 2.5361e-76 6.03818e-77 1.41292e-77 3.24352e-78 6.99785e-79 0 
0 1.10209e-112 8.78092e-112 6.82039e-111 5.24289e-110 3.9892e-109 3.00412e-108 2.23882e-107 1.65102e-106 1.20468e-105 8.69625e-105 6.20995e-104 4.38626e-103 3.0641e-102 2.11673e-101 1.44589e-100 9.76466e-100 6.51905e-99 4.30192e-98 2.80569e-97 1.80826e-96 1.15151e-95 7.24453e-95 4.5022e-94 2.76346e-93 1.67508e-92 1.00256e-91 5.92396e-91 3.45525e-90 1.98904e-89 1.1299e-88 6.33277e-88 3.50138e-87 1.90942e-86 1.02685e-85 5.44479e-85 2.84606e-84 1.46627e-83 7.44415e-83 3.72357e-82 1.83468e-81 8.90294e-81 4.25389e-80 2.0009e-79 9.26313e-79 4.21974e-78 1.89107e-77 8.33533e-77 3.61265e-76 1.53924e-75 6.4455e-75 2.65192e-74 1.07177e-73 4.25364e-73 1.65734e-72 6.33767e-72 2.37785e-71 8.75064e-71 3.15762e-70 1.11687e-69 3.87102e-69 1.31424e-68 4.36917e-68 1.42181e-67 4.52731e-67 1.41003e-66 4.29377e-66 1.27789e-65 3.71549e-65 1.05493e-64 2.92365e-64 7.90561e-64 2.08476e-63 5.35904e-63 1.34223e-62 3.27394e-62 7.77338e-62 1.79569e-61 4.03391e-61 8.80804e-61 1.86843e-60 3.84864e-60 7.69417e-60 1.49222e-59 2.80623e-59 5.11491e-59 9.03223e-59 1.54464e-58 2.55728e-58 4.09748e-58 6.35231e-58 9.52671e-58 1.38198e-57 1.9391e-57 2.63194e-57 3.45642e-57 4.39346e-57 5.40818e-57 6.45181e-57 7.46662e-57 8.39331e-57 9.17945e-57 9.78743e-57 1.02003e-56 1.04246e-56 1.04887e-56 1.04391e-56 1.03331e-56 1.02311e-56 1.01882e-56 1.02472e-56 1.04334e-56 1.07521e-56 1.11881e-56 1.17095e-56 1.22726e-56 1.28298e-56 1.33367e-56 1.37594e-56 1.40787e-56 1.42924e-56 1.44139e-56 1.4468e-56 1.44861e-56 1.44998e-56 1.45362e-56 1.46142e-56 1.47427e-56 1.49214e-56 1.51416e-56 1.53893e-56 1.56471e-56 1.58959e-56 1.61166e-56 1.62901e-56 1.63984e-56 1.6425e-56 1.63568e-56 1.61851e-56 1.59077e-56 1.55294e-56 1.50624e-56 1.45246e-56 1.39376e-56 1.33242e-56 1.27066e-56 1.21054e-56 1.15392e-56 1.10254e-56 1.05804e-56 1.02194e-56 9.95552e-57 9.79733e-57 9.74671e-57 9.79699e-57 9.9325e-57 1.013e-56 1.03617e-56 1.05998e-56 1.08202e-56 1.10066e-56 1.11518e-56 1.12582e-56 1.13361e-56 1.14008e-56 1.14693e-56 1.15565e-56 1.16719e-56 1.18171e-56 1.19853e-56 1.21618e-56 1.23269e-56 1.24603e-56 1.25455e-56 1.25747e-56 1.25519e-56 1.24941e-56 1.24291e-56 1.2392e-56 1.24191e-56 1.25411e-56 1.27778e-56 1.31331e-56 1.35934e-56 1.41281e-56 1.46932e-56 1.52366e-56 1.57042e-56 1.60462e-56 1.62222e-56 1.62037e-56 1.59758e-56 1.55357e-56 1.48916e-56 1.40605e-56 1.30662e-56 1.19389e-56 1.07136e-56 9.42996e-57 8.12992e-57 6.8559e-57 5.64758e-57 4.53878e-57 3.55471e-57 2.71038e-57 2.01025e-57 1.44932e-57 1.01514e-57 6.9047e-58 4.55913e-58 2.92175e-58 1.81707e-58 1.0966e-58 6.42223e-59 3.65025e-59 2.01383e-59 1.07863e-59 5.61013e-60 2.8343e-60 1.39131e-60 6.6382e-61 3.07948e-61 1.38953e-61 6.10078e-62 2.60737e-62 1.08516e-62 4.39979e-63 1.73859e-63 6.69833e-64 2.51719e-64 9.23045e-65 3.30416e-65 1.15505e-65 3.94473e-66 1.31666e-66 4.29674e-67 1.37142e-67 4.28284e-68 1.30911e-68 3.9179e-69 1.14846e-69 3.29844e-70 9.28483e-71 2.56242e-71 6.93542e-72 1.84151e-72 4.79827e-73 1.22724e-73 3.08198e-74 7.60166e-75 1.84196e-75 4.38587e-76 1.02637e-76 2.35638e-77 5.08431e-78 0 