# vtk DataFile Version 3.0
Gray-Scott Simulation Output
ASCII
DATASET STRUCTURED_POINTS
DIMENSIONS 256 256 1
SPACING 1.0 1.0 1.0
ORIGIN 0 0 0
POINT_DATA 65536
SCALARS u double
LOOKUP_TABLE default
0 0 0 0 0 0 0 0 0 0 0 0 0 0 0 0 0 0 0 0 0 0 0 0 0 0 0 0 0 0 0 0 0 0 0 0 0 0 0 0 0 0 0 0 0 0 0 0 0 0 0 0 0 0 0 0 0 0 0 0 0 0 0 0 0 0 0 0 0 0 0 0 0 0 0 0 0 0 0 0 0 0 0 0 0 0 0 0 0 0 0 0 0 0 0 0 0 0 0 0 0 0 0 0 0 0 0 0 0 0 0 0 0 0 0 0 0 0 0 0 0 0 0 0 0 0 0 0 0 0 0 0 0 0 0 0 0 0 0 0 0 0 0 0 0 0 0 0 0 0 0 0 0 0 0 0 0 0 0 0 0 0 0 0 0 0 0 0 0 0 0 0 0 0 0 0 0 0 0 0 0 0 0 0 0 0 0 0 0 0 0 0 0 0 0 0 0 0 0 0 0 0 0 0 0 0 0 0 0 0 0 0 0 0 0 0 0 0 0 0 0 0 0 0 0 0 0 0 0 0 0 0 0 0 0 0 0 0 0 0 0 0 0 0 0 0 0 0 0 0 0 0 0 0 0 0 
0 1.70964e-79 6.4453e-79 2.24419e-78 7.70614e-78 2.62256e-77 8.84852e-77 2.95979e-76 9.81459e-76 3.22608e-75 1.0511e-74 3.39427e-74 1.08633e-73 3.4455e-73 1.08292e-72 3.37257e-72 1.04068e-71 3.18152e-71 9.63571e-71 2.89089e-70 8.5911e-70 2.52873e-69 7.37156e-69 2.12809e-68 6.08355e-68 1.72199e-67 4.82587e-67 1.33893e-66 3.6774e-66 9.9975e-66 2.69013e-65 7.16391e-65 1.88793e-64 4.92313e-64 1.27023e-63 3.24241e-63 8.18767e-63 2.04513e-62 5.05256e-62 1.2345e-61 2.98276e-61 7.12613e-61 1.68328e-60 3.93081e-60 9.07384e-60 2.07033e-59 4.66859e-59 1.04036e-58 2.29084e-58 4.98389e-58 1.07118e-57 2.27423e-57 4.76908e-57 9.8769e-57 2.01997e-56 4.07909e-56 8.13255e-56 1.60063e-55 3.10963e-55 5.96257e-55 1.12828e-54 2.10677e-54 3.88134e-54 7.05453e-54 1.26482e-53 2.23677e-53 3.90118e-53 6.70982e-53 1.13795e-52 1.90277e-52 3.13662e-52 5.09691e-52 8.16363e-52 1.2887e-51 2.00483e-51 3.07344e-51 4.64262e-51 6.90973e-51 1.01319e-50 1.46363e-50 2.08287e-50 2.91986e-50 4.03203e-50 5.48452e-50 7.34858e-50 9.69891e-50 1.26098e-49 1.61502e-49 2.0378e-49 2.53333e-49 3.10329e-49 3.74637e-49 4.45796e-49 5.22985e-49 6.05039e-49 6.90481e-49 7.77594e-49 8.64516e-49 9.49358e-49 1.03033e-48 1.10586e-48 1.17471e-48 1.23606e-48 1.28953e-48 1.33522e-48 1.37365e-48 1.40567e-48 1.43241e-48 1.45511e-48 1.47504e-48 1.49336e-48 1.51106e-48 1.52889e-48 1.5473e-48 1.56652e-48 1.58652e-48 1.60711e-48 1.62795e-48 1.6487e-48 1.66899e-48 1.68854e-48 1.70713e-48 1.72465e-48 1.74108e-48 1.75645e-48 1.77082e-48 1.78427e-48 1.7968e-48 1.80837e-48 1.81885e-48 1.82801e-48 1.83554e-48 1.84105e-48 1.84411e-48 1.84431e-48 1.84124e-48 1.83459e-48 1.82412e-48 1.80975e-48 1.79155e-48 1.76974e-48 1.74471e-48 1.71702e-48 1.68732e-48 1.6564e-48 1.62509e-48 1.59424e-48 1.56468e-48 1.53718e-48 1.5124e-48 1.49088e-48 1.47299e-48 1.45892e-48 1.44872e-48 1.44224e-48 1.43924e-48 1.43933e-48 1.44208e-48 1.44701e-48 1.45363e-48 1.46151e-48 1.47025e-48 1.47952e-48 1.48906e-48 1.49867e-48 1.50824e-48 1.51766e-48 1.52689e-48 1.5359e-48 1.54471e-48 1.55335e-48 1.56189e-48 1.57044e-48 1.57916e-48 1.58825e-48 1.59792e-48 1.60839e-48 1.61987e-48 1.63249e-48 1.64627e-48 1.6611e-48 1.67667e-48 1.69246e-48 1.70777e-48 1.72166e-48 1.73304e-48 1.74069e-48 1.74333e-48 1.73967e-48 1.7285e-48 1.70879e-48 1.67969e-48 1.64064e-48 1.59143e-48 1.53214e-48 1.46326e-48 1.38559e-48 1.30028e-48 1.20874e-48 1.11259e-48 1.0136e-48 9.13608e-49 8.14435e-49 7.17802e-49 6.25261e-49 5.38137e-49 4.5748e-49 3.84048e-49 3.18291e-49 2.6037e-49 2.10183e-49 1.67403e-49 1.31528e-49 1.0193e-49 7.79034e-50 5.87137e-50 4.36327e-50 3.197e-50 2.30945e-50 1.64471e-50 1.15471e-50 7.99199e-51 5.45295e-51 3.66781e-51 2.43214e-51 1.58996e-51 1.02475e-51 6.51174e-52 4.0799e-52 2.52056e-52 1.53556e-52 9.22539e-53 5.4662e-53 3.19447e-53 1.84145e-53 1.04714e-53 5.87443e-54 3.25151e-54 1.77583e-54 9.57086e-55 5.09069e-55 2.6725e-55 1.38489e-55 7.08456e-56 3.57808e-56 1.78431e-56 8.7865e-57 4.27295e-57 2.05233e-57 9.73652e-58 4.56225e-58 2.11009e-58 9.59766e-59 4.2078e-59 1.57614e-59 0 
0 6.44694e-79 2.43081e-78 8.46517e-78 2.90726e-77 9.89567e-77 3.33939e-76 1.11721e-75 3.70532e-75 1.21818e-74 3.96974e-74 1.28219e-73 4.10444e-73 1.30208e-72 4.0933e-72 1.27507e-71 3.9354e-71 1.20339e-70 3.6455e-70 1.09398e-69 3.25189e-69 9.57411e-69 2.7917e-68 8.06145e-68 2.30515e-67 6.52668e-67 1.82962e-66 5.0777e-66 1.39501e-65 3.79367e-65 1.02111e-64 2.72011e-64 7.17066e-64 1.87049e-63 4.82769e-63 1.23274e-62 3.11395e-62 7.78079e-62 1.92295e-61 4.70004e-61 1.13602e-60 2.71508e-60 6.41573e-60 1.49878e-59 3.46108e-59 7.90004e-59 1.78215e-58 3.97298e-58 8.75184e-58 1.9048e-57 4.09562e-57 8.69898e-57 1.82494e-56 3.78106e-56 7.73604e-56 1.56285e-55 3.11718e-55 6.13773e-55 1.19291e-54 2.28829e-54 4.33187e-54 8.09195e-54 1.49141e-53 2.71181e-53 4.864e-53 8.60511e-53 1.50141e-52 2.58334e-52 4.38283e-52 7.33123e-52 1.20894e-51 1.96517e-51 3.14863e-51 4.97197e-51 7.73724e-51 1.18648e-50 1.79273e-50 2.66885e-50 3.91432e-50 5.65576e-50 8.05016e-50 1.12871e-49 1.55886e-49 2.12069e-49 2.84174e-49 3.7509e-49 4.87687e-49 6.24625e-49 7.88128e-49 9.79738e-49 1.20008e-48 1.44861e-48 1.72353e-48 2.02162e-48 2.33834e-48 2.66794e-48 3.00374e-48 3.33852e-48 3.66495e-48 3.97612e-48 4.26595e-48 4.52968e-48 4.76416e-48 4.968e-48 5.14161e-48 5.28704e-48 5.40768e-48 5.5079e-48 5.59259e-48 5.66665e-48 5.73462e-48 5.80034e-48 5.86668e-48 5.93548e-48 6.00754e-48 6.08278e-48 6.16041e-48 6.2392e-48 6.31775e-48 6.39469e-48 6.46886e-48 6.53946e-48 6.60603e-48 6.66847e-48 6.7269e-48 6.78158e-48 6.83273e-48 6.88045e-48 6.92455e-48 6.96452e-48 6.99947e-48 7.02822e-48 7.0493e-48 7.0611e-48 7.06196e-48 7.05038e-48 7.02511e-48 6.98529e-48 6.93059e-48 6.86126e-48 6.77816e-48 6.68278e-48 6.5772e-48 6.46399e-48 6.34609e-48 6.22669e-48 6.10905e-48 5.99635e-48 5.89152e-48 5.79709e-48 5.71509e-48 5.64692e-48 5.59337e-48 5.55453e-48 5.52994e-48 5.51857e-48 5.519e-48 5.52954e-48 5.54836e-48 5.57364e-48 5.60367e-48 5.63694e-48 5.67222e-48 5.70852e-48 5.74511e-48 5.78147e-48 5.81729e-48 5.85237e-48 5.88664e-48 5.92013e-48 5.95297e-48 5.98545e-48 6.01799e-48 6.05118e-48 6.08575e-48 6.12256e-48 6.16247e-48 6.20625e-48 6.25441e-48 6.30707e-48 6.36378e-48 6.42339e-48 6.48397e-48 6.54277e-48 6.59627e-48 6.64029e-48 6.67018e-48 6.68101e-48 6.66787e-48 6.62614e-48 6.55177e-48 6.44155e-48 6.29329e-48 6.10606e-48 5.88023e-48 5.61753e-48 5.32104e-48 4.99506e-48 4.64495e-48 4.27692e-48 3.89774e-48 3.51445e-48 3.13403e-48 2.7631e-48 2.40765e-48 2.07281e-48 1.76266e-48 1.48013e-48 1.22702e-48 1.00397e-48 8.10622e-49 6.45752e-49 5.07448e-49 3.93308e-49 3.00633e-49 2.26598e-49 1.68405e-49 1.23396e-49 8.91392e-50 6.34808e-50 4.45665e-50 3.08434e-50 2.10427e-50 1.41524e-50 9.38327e-51 6.13321e-51 3.95225e-51 2.51099e-51 1.57292e-51 9.71539e-52 5.91736e-52 3.55418e-52 2.10536e-52 1.23005e-52 7.0886e-53 4.02973e-53 2.26e-53 1.25053e-53 6.82764e-54 3.67858e-54 1.95597e-54 1.0265e-54 5.31752e-55 2.7193e-55 1.37292e-55 6.84407e-56 3.36905e-56 1.63783e-56 7.86383e-57 3.7294e-57 1.74688e-57 8.07668e-58 3.6724e-58 1.60955e-58 6.02758e-59 0 
0 2.24542e-78 8.46766e-78 2.94936e-77 1.01312e-76 3.44911e-76 1.16417e-75 3.89562e-75 1.29229e-74 4.24953e-74 1.38513e-73 4.47489e-73 1.43281e-72 4.54651e-72 1.42963e-71 4.45447e-71 1.3752e-70 4.2063e-70 1.27459e-69 3.82603e-69 1.13762e-68 3.35035e-68 9.77221e-68 2.82275e-67 8.07413e-67 2.28681e-66 6.4127e-66 1.78031e-65 4.89278e-65 1.33104e-64 3.58393e-64 9.55061e-64 2.51864e-63 6.57246e-63 1.69699e-62 4.33492e-62 1.09546e-61 2.73832e-61 6.77028e-61 1.65548e-60 4.00307e-60 9.57141e-60 2.26271e-59 5.28826e-59 1.22175e-58 2.78996e-58 6.29671e-58 1.40439e-57 3.09509e-57 6.7395e-57 1.44979e-56 3.08079e-56 6.46624e-56 1.34038e-55 2.74375e-55 5.54569e-55 1.10666e-54 2.18007e-54 4.23918e-54 8.13578e-54 1.5409e-53 2.8798e-53 5.31023e-53 9.66011e-53 1.73349e-52 3.06821e-52 5.35584e-52 9.21941e-52 1.56483e-51 2.61864e-51 4.32002e-51 7.02515e-51 1.12602e-50 1.77875e-50 2.76903e-50 4.24764e-50 6.42011e-50 9.5605e-50 1.4026e-49 2.02712e-49 2.88597e-49 4.04722e-49 5.59061e-49 7.60662e-49 1.01941e-48 1.34567e-48 1.74972e-48 2.24107e-48 2.82765e-48 3.51494e-48 4.30507e-48 5.19603e-48 6.18114e-48 7.24876e-48 8.38241e-48 9.56132e-48 1.07614e-47 1.19566e-47 1.31206e-47 1.42286e-47 1.52588e-47 1.61942e-47 1.70237e-47 1.77425e-47 1.83523e-47 1.88606e-47 1.928e-47 1.96262e-47 1.99169e-47 2.01699e-47 2.04017e-47 2.0626e-47 2.08532e-47 2.10899e-47 2.13389e-47 2.16e-47 2.18703e-47 2.21454e-47 2.24203e-47 2.26898e-47 2.295e-47 2.31979e-47 2.34318e-47 2.36512e-47 2.38567e-47 2.4049e-47 2.42291e-47 2.43972e-47 2.45527e-47 2.46937e-47 2.48172e-47 2.49188e-47 2.49936e-47 2.50356e-47 2.50391e-47 2.49987e-47 2.491e-47 2.47699e-47 2.45773e-47 2.43329e-47 2.404e-47 2.37036e-47 2.33312e-47 2.29318e-47 2.25158e-47 2.20945e-47 2.16794e-47 2.12818e-47 2.0912e-47 2.0579e-47 2.02898e-47 2.00496e-47 1.98609e-47 1.97243e-47 1.96378e-47 1.95981e-47 1.95999e-47 1.96373e-47 1.97039e-47 1.97931e-47 1.98991e-47 2.00163e-47 2.01406e-47 2.02683e-47 2.0397e-47 2.05249e-47 2.06509e-47 2.07742e-47 2.08947e-47 2.10125e-47 2.1128e-47 2.12423e-47 2.13567e-47 2.14735e-47 2.15952e-47 2.17249e-47 2.18656e-47 2.20201e-47 2.21902e-47 2.23765e-47 2.25773e-47 2.27887e-47 2.30039e-47 2.32132e-47 2.34043e-47 2.35623e-47 2.36708e-47 2.37123e-47 2.36695e-47 2.35258e-47 2.32669e-47 2.28811e-47 2.23607e-47 2.17021e-47 2.09063e-47 1.99794e-47 1.89319e-47 1.77789e-47 1.65394e-47 1.52351e-47 1.38901e-47 1.25293e-47 1.11775e-47 9.8585e-48 8.59358e-48 7.40115e-48 6.29591e-48 5.28851e-48 4.38545e-48 3.58924e-48 2.89874e-48 2.30968e-48 1.81535e-48 1.40725e-48 1.0758e-48 8.1095e-49 6.02729e-49 4.41655e-49 3.19047e-49 2.27206e-49 1.59501e-49 1.10378e-49 7.52971e-50 5.06349e-50 3.35667e-50 2.19364e-50 1.4133e-50 8.97718e-51 5.62212e-51 3.47168e-51 2.11392e-51 1.26933e-51 7.51671e-52 4.3902e-52 2.52917e-52 1.43729e-52 8.05789e-53 4.45706e-53 2.43256e-53 1.31011e-53 6.96341e-54 3.65298e-54 1.89159e-54 9.6694e-55 4.8799e-55 2.43166e-55 1.19652e-55 5.81434e-56 2.79054e-56 1.32286e-56 6.19383e-57 2.86255e-57 1.30106e-57 5.70028e-58 2.13409e-58 0 
0 7.71271e-78 2.909e-77 1.01342e-76 3.48186e-76 1.18563e-75 4.00268e-75 1.33969e-74 4.44516e-74 1.46207e-73 4.76675e-73 1.54035e-72 4.93326e-72 1.5658e-71 4.92488e-71 1.53492e-70 4.73996e-70 1.45022e-69 4.39572e-69 1.31988e-68 3.92571e-68 1.1565e-67 3.37432e-67 9.75003e-67 2.78981e-66 7.90416e-66 2.21726e-65 6.15779e-65 1.69295e-64 4.6072e-64 1.241e-63 3.30832e-63 8.72796e-63 2.27849e-62 5.88537e-62 1.50402e-61 3.80235e-61 9.50879e-61 2.35199e-60 5.75365e-60 1.3919e-59 3.32956e-59 7.87481e-59 1.84131e-58 4.25599e-58 9.7235e-58 2.19557e-57 4.89928e-57 1.08027e-56 2.35344e-56 5.06522e-56 1.0769e-55 2.26143e-55 4.69009e-55 9.60551e-55 1.94247e-54 3.87825e-54 7.64394e-54 1.48714e-53 2.85556e-53 5.41114e-53 1.01181e-52 1.86667e-52 3.39746e-52 6.0997e-52 1.08015e-51 1.88641e-51 3.24875e-51 5.51671e-51 9.23602e-51 1.52435e-50 2.47993e-50 3.97656e-50 6.28418e-50 9.78644e-50 1.50176e-49 2.2706e-49 3.38234e-49 4.96361e-49 7.1756e-49 1.02182e-48 1.43329e-48 1.98024e-48 2.69474e-48 3.61185e-48 4.76823e-48 6.20027e-48 7.94158e-48 1.00201e-47 1.24549e-47 1.52533e-47 1.84076e-47 2.18938e-47 2.567e-47 2.96771e-47 3.3841e-47 3.80759e-47 4.2289e-47 4.63869e-47 5.02813e-47 5.38956e-47 5.71699e-47 6.00652e-47 6.25654e-47 6.46772e-47 6.64284e-47 6.78639e-47 6.90408e-47 7.00223e-47 7.08719e-47 7.16482e-47 7.24004e-47 7.31653e-47 7.39663e-47 7.48137e-47 7.57063e-47 7.6634e-47 7.75809e-47 7.85289e-47 7.94605e-47 8.03607e-47 8.12191e-47 8.20295e-47 8.27904e-47 8.35032e-47 8.41709e-47 8.47964e-47 8.53807e-47 8.59214e-47 8.64123e-47 8.68427e-47 8.71976e-47 8.7459e-47 8.76068e-47 8.76207e-47 8.74818e-47 8.71746e-47 8.66884e-47 8.60191e-47 8.51694e-47 8.41502e-47 8.29796e-47 8.16833e-47 8.02928e-47 7.88445e-47 7.73776e-47 7.59325e-47 7.45482e-47 7.3261e-47 7.21019e-47 7.10959e-47 7.02604e-47 6.96047e-47 6.91302e-47 6.88307e-47 6.86935e-47 6.8701e-47 6.88322e-47 6.90646e-47 6.93755e-47 6.97441e-47 7.01519e-47 7.05835e-47 7.10271e-47 7.14739e-47 7.19177e-47 7.23547e-47 7.27826e-47 7.32007e-47 7.36092e-47 7.40101e-47 7.44065e-47 7.48039e-47 7.52094e-47 7.56322e-47 7.6083e-47 7.65725e-47 7.71104e-47 7.77036e-47 7.83538e-47 7.90558e-47 7.97959e-47 8.05506e-47 8.12864e-47 8.19601e-47 8.25203e-47 8.29095e-47 8.30666e-47 8.29307e-47 8.24441e-47 8.15559e-47 8.02251e-47 7.84238e-47 7.61386e-47 7.33725e-47 7.01455e-47 6.64941e-47 6.24703e-47 5.81393e-47 5.35776e-47 4.88688e-47 4.41002e-47 3.93592e-47 3.4729e-47 3.02853e-47 2.60931e-47 2.22046e-47 1.86581e-47 1.5477e-47 1.26707e-47 1.02358e-47 8.15764e-48 6.41298e-48 4.97214e-48 3.80156e-48 2.86595e-48 2.13023e-48 1.56101e-48 1.12767e-48 8.03034e-49 5.6371e-49 3.90067e-49 2.66064e-49 1.78895e-49 1.18573e-49 7.74747e-50 4.99045e-50 3.16915e-50 1.98423e-50 1.22494e-50 7.45651e-51 4.47597e-51 2.64972e-51 1.54707e-51 8.90946e-52 5.06128e-52 2.83645e-52 1.56832e-52 8.55618e-53 4.60628e-53 2.4473e-53 1.28331e-53 6.64247e-54 3.39406e-54 1.71217e-54 8.52811e-55 4.19451e-55 2.03739e-55 9.77405e-56 4.6314e-56 2.16756e-56 1.00133e-56 4.54929e-57 1.9924e-57 7.45705e-58 0 
0 2.6256e-77 9.90464e-77 3.45122e-76 1.18599e-75 4.03936e-75 1.36399e-74 4.5663e-74 1.51547e-73 4.98576e-73 1.62589e-72 5.25531e-72 1.68354e-71 5.34492e-71 1.68159e-70 5.24239e-70 1.61935e-69 4.95595e-69 1.50264e-68 4.51328e-68 1.3428e-67 3.9571e-67 1.15494e-66 3.3383e-66 9.55526e-66 2.70817e-65 7.59964e-65 2.11134e-64 5.80682e-64 1.58088e-63 4.2599e-63 1.13608e-62 2.99839e-62 7.83071e-62 2.02353e-61 5.17339e-61 1.30846e-60 3.27359e-60 8.10081e-60 1.98259e-59 4.79841e-59 1.14836e-58 2.71731e-58 6.35673e-58 1.47001e-57 3.36013e-57 7.59098e-57 1.69473e-56 3.73871e-56 8.1492e-56 1.75483e-55 3.73283e-55 7.84288e-55 1.62743e-54 3.33481e-54 6.74739e-54 1.34787e-53 2.65804e-53 5.17401e-53 9.94027e-53 1.88463e-52 3.52584e-52 6.5082e-52 1.18515e-51 2.12887e-51 3.77177e-51 6.59042e-51 1.13555e-50 1.92921e-50 3.23137e-50 5.33562e-50 8.68424e-50 1.39311e-49 2.20243e-49 3.43123e-49 5.26728e-49 7.96672e-49 1.18713e-48 1.74265e-48 2.51995e-48 3.58937e-48 5.03585e-48 6.95889e-48 9.4713e-48 1.26963e-47 1.67628e-47 2.17985e-47 2.7921e-47 3.5228e-47 4.37859e-47 5.36185e-47 6.46979e-47 7.69372e-47 9.01872e-47 1.04238e-46 1.18827e-46 1.33651e-46 1.48381e-46 1.62689e-46 1.76265e-46 1.88838e-46 2.00201e-46 2.10219e-46 2.18837e-46 2.26083e-46 2.32056e-46 2.36919e-46 2.40875e-46 2.44148e-46 2.46964e-46 2.4953e-46 2.5202e-46 2.54563e-46 2.57244e-46 2.60096e-46 2.63117e-46 2.66269e-46 2.69498e-46 2.72738e-46 2.75928e-46 2.79015e-46 2.81961e-46 2.84744e-46 2.8736e-46 2.89811e-46 2.92108e-46 2.94262e-46 2.96275e-46 2.9814e-46 2.99834e-46 3.01322e-46 3.0255e-46 3.03457e-46 3.03972e-46 3.04026e-46 3.03553e-46 3.02498e-46 3.00826e-46 2.9852e-46 2.95591e-46 2.92075e-46 2.88037e-46 2.83563e-46 2.78763e-46 2.73764e-46 2.687e-46 2.63712e-46 2.58934e-46 2.54491e-46 2.50492e-46 2.47022e-46 2.44141e-46 2.41882e-46 2.40248e-46 2.39219e-46 2.3875e-46 2.3878e-46 2.39236e-46 2.4004e-46 2.41114e-46 2.42386e-46 2.43792e-46 2.45278e-46 2.46806e-46 2.48343e-46 2.4987e-46 2.51373e-46 2.52844e-46 2.54282e-46 2.55687e-46 2.57066e-46 2.5843e-46 2.59797e-46 2.61193e-46 2.62649e-46 2.64203e-46 2.65891e-46 2.67749e-46 2.69799e-46 2.7205e-46 2.74484e-46 2.77053e-46 2.79678e-46 2.82244e-46 2.84601e-46 2.86572e-46 2.87957e-46 2.88546e-46 2.88126e-46 2.86497e-46 2.8348e-46 2.78933e-46 2.72755e-46 2.64898e-46 2.55368e-46 2.44233e-46 2.31615e-46 2.17693e-46 2.0269e-46 1.86871e-46 1.70525e-46 1.53955e-46 1.37465e-46 1.21347e-46 1.05864e-46 9.1247e-47 7.76789e-47 6.52954e-47 5.41809e-47 4.43703e-47 3.58533e-47 2.85809e-47 2.2473e-47 1.74269e-47 1.3326e-47 1.00474e-47 7.46863e-48 5.47313e-48 3.95378e-48 2.81549e-48 1.97629e-48 1.3674e-48 9.32593e-49 6.26963e-49 4.15484e-49 2.71422e-49 1.74795e-49 1.10975e-49 6.94641e-50 4.28705e-50 2.60885e-50 1.56553e-50 9.26465e-51 5.40737e-51 3.11292e-51 1.76772e-51 9.90285e-52 5.47327e-52 2.9848e-52 1.60622e-52 8.53018e-53 4.47113e-53 2.31327e-53 1.18148e-53 5.95746e-54 2.96602e-54 1.45817e-54 7.07959e-55 3.3948e-55 1.60789e-55 7.5218e-56 3.47326e-56 1.5773e-56 6.90521e-57 2.58368e-57 0 
0 8.86156e-77 3.34345e-76 1.16525e-75 4.00516e-75 1.36441e-74 4.60832e-74 1.54311e-73 5.12251e-73 1.68568e-72 5.49849e-72 1.77772e-71 5.69644e-71 1.809e-70 5.69295e-70 1.7753e-69 5.48544e-69 1.67929e-68 5.09316e-68 1.53025e-67 4.55429e-67 1.34255e-66 3.91976e-66 1.13338e-65 3.24522e-65 9.20098e-65 2.58292e-64 7.17859e-64 1.97508e-63 5.37916e-63 1.45007e-62 3.86879e-62 1.02149e-61 2.66889e-61 6.89963e-61 1.76474e-60 4.46539e-60 1.11769e-59 2.7671e-59 6.77537e-59 1.6406e-58 3.92821e-58 9.29966e-58 2.17659e-57 5.03595e-57 1.15169e-56 2.60317e-56 5.81475e-56 1.28345e-55 2.799e-55 6.03053e-55 1.28349e-54 2.69814e-54 5.60181e-54 1.14851e-53 2.32508e-53 4.64718e-53 9.16942e-53 1.78586e-52 3.43286e-52 6.51212e-52 1.21898e-51 2.25128e-51 4.10179e-51 7.37193e-51 1.30679e-50 2.28453e-50 3.93831e-50 6.6942e-50 1.1218e-49 1.85319e-49 3.01763e-49 4.84296e-49 7.65973e-49 1.19381e-48 1.83333e-48 2.77391e-48 4.13483e-48 6.07166e-48 8.78242e-48 1.25128e-47 1.75594e-47 2.42696e-47 3.30373e-47 4.42926e-47 5.84847e-47 7.60584e-47 9.74232e-47 1.22917e-46 1.52768e-46 1.87055e-46 2.25675e-46 2.68317e-46 3.14454e-46 3.63346e-46 4.14067e-46 4.65551e-46 5.16651e-46 5.66214e-46 6.13158e-46 6.56545e-46 6.95655e-46 7.30022e-46 7.59469e-46 7.84101e-46 8.04281e-46 8.20584e-46 8.33729e-46 8.44509e-46 8.53719e-46 8.62085e-46 8.70218e-46 8.78573e-46 8.87438e-46 8.96938e-46 9.07057e-46 9.17667e-46 9.28573e-46 9.39549e-46 9.50376e-46 9.60869e-46 9.70893e-46 9.80374e-46 9.89286e-46 9.97644e-46 1.00548e-45 1.01284e-45 1.01971e-45 1.02609e-45 1.03189e-45 1.03699e-45 1.04121e-45 1.04433e-45 1.04611e-45 1.04632e-45 1.04472e-45 1.04113e-45 1.03542e-45 1.02755e-45 1.01753e-45 1.00551e-45 9.91686e-46 9.76374e-46 9.59944e-46 9.42828e-46 9.25492e-46 9.08413e-46 8.92056e-46 8.7685e-46 8.63165e-46 8.51294e-46 8.41444e-46 8.33723e-46 8.28147e-46 8.2464e-46 8.23051e-46 8.23168e-46 8.24741e-46 8.27501e-46 8.31181e-46 8.35533e-46 8.40338e-46 8.45417e-46 8.5063e-46 8.55876e-46 8.61083e-46 8.66209e-46 8.71228e-46 8.76131e-46 8.80924e-46 8.85627e-46 8.9028e-46 8.94946e-46 8.99711e-46 9.04684e-46 9.09994e-46 9.1577e-46 9.22132e-46 9.29164e-46 9.36893e-46 9.45261e-46 9.54112e-46 9.63173e-46 9.72049e-46 9.80232e-46 9.87114e-46 9.9201e-46 9.94195e-46 9.92939e-46 9.87547e-46 9.77403e-46 9.62008e-46 9.41008e-46 9.14227e-46 8.81679e-46 8.43581e-46 8.00346e-46 7.52576e-46 7.01036e-46 6.46627e-46 5.90344e-46 5.33231e-46 4.76341e-46 4.20679e-46 3.67167e-46 3.16603e-46 2.69632e-46 2.26732e-46 1.88202e-46 1.54173e-46 1.24614e-46 9.93622e-47 7.81445e-47 6.06086e-47 4.63527e-47 3.49522e-47 2.59834e-47 1.90417e-47 1.37558e-47 9.79522e-48 6.87518e-48 4.75652e-48 3.24363e-48 2.1803e-48 1.44461e-48 9.43521e-49 6.07485e-49 3.85588e-49 2.4129e-49 1.4887e-49 9.05653e-50 5.43288e-50 3.214e-50 1.87519e-50 1.0791e-50 6.12545e-51 3.43012e-51 1.89503e-51 1.033e-51 5.55654e-52 2.94963e-52 1.54538e-52 7.99188e-53 4.07992e-53 2.05631e-53 1.0233e-53 5.02849e-54 2.44026e-54 1.16961e-54 5.53712e-55 2.5891e-55 1.195e-55 5.4244e-56 2.37376e-56 8.87899e-57 0 
0 2.96509e-76 1.11893e-75 3.90044e-75 1.34095e-74 4.56915e-74 1.54359e-73 5.17001e-73 1.71666e-72 5.65047e-72 1.8436e-71 5.96212e-71 1.911e-70 6.07038e-70 1.91091e-69 5.96075e-69 1.84235e-68 5.64184e-68 1.71166e-67 5.14439e-67 1.53157e-66 4.5164e-66 1.31908e-65 3.8154e-65 1.09287e-64 3.09969e-64 8.70479e-64 2.42022e-63 6.6615e-63 1.815e-62 4.89473e-62 1.30646e-61 3.45097e-61 9.02039e-61 2.33299e-60 5.96986e-60 1.51127e-59 3.78447e-59 9.37378e-59 2.29632e-58 5.56307e-58 1.33267e-57 3.15655e-57 7.39169e-57 1.71109e-56 3.91523e-56 8.85425e-56 1.97885e-55 4.37016e-55 9.53582e-55 2.05565e-54 4.37751e-54 9.20752e-54 1.91272e-53 3.92376e-53 7.9479e-53 1.58946e-52 3.13798e-52 6.11508e-52 1.17614e-51 2.23239e-51 4.18108e-51 7.72619e-51 1.40848e-50 2.53278e-50 4.49218e-50 7.85743e-50 1.35526e-49 2.30481e-49 3.8643e-49 6.38685e-49 1.04049e-48 1.67063e-48 2.64348e-48 4.12175e-48 6.33227e-48 9.58461e-48 1.4292e-47 2.09935e-47 3.03754e-47 4.32893e-47 6.0763e-47 8.40007e-47 1.14367e-46 1.53351e-46 2.02508e-46 2.63374e-46 3.37364e-46 4.25638e-46 5.28973e-46 6.47628e-46 7.81222e-46 9.28658e-46 1.08808e-45 1.25689e-45 1.43187e-45 1.60929e-45 1.78517e-45 1.95549e-45 2.11652e-45 2.26502e-45 2.39851e-45 2.51541e-45 2.61514e-45 2.6981e-45 2.76561e-45 2.81968e-45 2.86284e-45 2.89789e-45 2.92758e-45 2.95446e-45 2.98064e-45 3.00772e-45 3.03669e-45 3.06798e-45 3.10153e-45 3.1369e-45 3.1734e-45 3.21024e-45 3.24666e-45 3.28202e-45 3.31583e-45 3.34784e-45 3.37795e-45 3.40621e-45 3.43273e-45 3.45763e-45 3.48093e-45 3.50256e-45 3.52226e-45 3.53959e-45 3.55395e-45 3.5646e-45 3.57072e-45 3.57149e-45 3.56614e-45 3.55403e-45 3.53472e-45 3.50804e-45 3.47408e-45 3.43329e-45 3.38639e-45 3.33441e-45 3.27864e-45 3.22052e-45 3.16166e-45 3.10367e-45 3.04814e-45 2.99652e-45 2.95008e-45 2.90981e-45 2.8764e-45 2.85024e-45 2.83137e-45 2.81952e-45 2.81418e-45 2.81463e-45 2.82001e-45 2.8294e-45 2.84191e-45 2.85667e-45 2.87296e-45 2.89017e-45 2.90782e-45 2.92557e-45 2.94318e-45 2.96051e-45 2.97749e-45 2.99407e-45 3.01028e-45 3.02618e-45 3.04193e-45 3.05771e-45 3.07384e-45 3.09069e-45 3.10869e-45 3.12828e-45 3.1499e-45 3.17381e-45 3.20014e-45 3.22868e-45 3.25893e-45 3.28995e-45 3.32043e-45 3.34862e-45 3.37247e-45 3.38965e-45 3.39768e-45 3.39407e-45 3.37645e-45 3.34268e-45 3.29105e-45 3.22031e-45 3.12984e-45 3.01963e-45 2.8904e-45 2.7435e-45 2.58097e-45 2.40538e-45 2.21978e-45 2.02757e-45 1.83232e-45 1.63763e-45 1.44695e-45 1.26347e-45 1.08995e-45 9.28629e-46 7.8118e-46 6.48662e-46 5.31546e-46 4.29761e-46 3.42762e-46 2.69628e-46 2.09161e-46 1.59987e-46 1.20651e-46 8.96984e-47 6.57374e-47 4.74889e-47 3.38148e-47 2.37328e-47 1.64177e-47 1.11943e-47 7.52338e-48 4.98387e-48 3.25443e-48 2.09486e-48 1.32932e-48 8.3161e-49 5.12927e-49 3.11937e-49 1.87062e-49 1.10623e-49 6.45177e-50 3.7113e-50 2.10584e-50 1.17873e-50 6.50936e-51 3.54677e-51 1.90696e-51 1.01183e-51 5.2988e-52 2.73899e-52 1.39762e-52 7.0408e-53 3.50211e-53 1.72012e-53 8.34353e-54 3.99712e-54 1.8914e-54 8.83977e-55 4.07807e-55 1.85029e-55 8.09363e-56 3.02645e-56 0 
0 9.8353e-76 3.71219e-75 1.2943e-74 4.45073e-74 1.5169e-73 5.12575e-73 1.7172e-72 5.70327e-72 1.87775e-71 6.12822e-71 1.98238e-70 6.35576e-70 2.01952e-69 6.35915e-69 1.98423e-68 6.13474e-68 1.87924e-67 5.70324e-67 1.71467e-66 5.10658e-66 1.50639e-65 4.40121e-65 1.2735e-64 3.64911e-64 1.03539e-63 2.90879e-63 8.0906e-63 2.22779e-62 6.07235e-62 1.6383e-61 4.37469e-61 1.15607e-60 3.02316e-60 7.82251e-60 2.00262e-59 5.07202e-59 1.27073e-58 3.14902e-58 7.71804e-58 1.87072e-57 4.48372e-57 1.06256e-56 2.48951e-56 5.766e-56 1.32006e-55 2.98693e-55 6.67923e-55 1.47589e-54 3.22224e-54 6.95019e-54 1.48089e-53 3.11666e-53 6.47812e-53 1.3297e-52 2.695e-52 5.39278e-52 1.06529e-51 2.07718e-51 3.99748e-51 7.59193e-51 1.42273e-50 2.63058e-50 4.79829e-50 8.63337e-50 1.53209e-49 2.68131e-49 4.62728e-49 7.87352e-49 1.32078e-48 2.18408e-48 3.55986e-48 5.7185e-48 9.05263e-48 1.41211e-47 2.17034e-47 3.28634e-47 4.9022e-47 7.20328e-47 1.04256e-46 1.48622e-46 2.08665e-46 2.88527e-46 3.929e-46 5.26903e-46 6.95875e-46 9.0509e-46 1.15938e-45 1.46271e-45 1.81771e-45 2.2252e-45 2.68381e-45 3.18966e-45 3.73627e-45 4.31466e-45 4.9136e-45 5.52024e-45 6.12081e-45 6.70149e-45 7.24941e-45 7.7535e-45 8.20529e-45 8.59949e-45 8.93423e-45 9.21104e-45 9.43456e-45 9.61191e-45 9.75191e-45 9.86423e-45 9.95848e-45 1.00434e-44 1.01265e-44 1.0213e-44 1.03065e-44 1.04083e-44 1.05184e-44 1.06351e-44 1.07561e-44 1.08786e-44 1.10001e-44 1.11181e-44 1.12312e-44 1.13383e-44 1.14392e-44 1.15339e-44 1.16229e-44 1.17065e-44 1.17848e-44 1.18575e-44 1.19238e-44 1.19822e-44 1.20307e-44 1.20668e-44 1.20876e-44 1.20905e-44 1.20727e-44 1.20322e-44 1.19674e-44 1.18778e-44 1.17636e-44 1.16264e-44 1.14686e-44 1.12936e-44 1.11058e-44 1.09102e-44 1.0712e-44 1.05167e-44 1.03298e-44 1.0156e-44 9.99971e-45 9.86422e-45 9.7519e-45 9.66399e-45 9.60063e-45 9.56094e-45 9.54316e-45 9.54484e-45 9.5631e-45 9.59483e-45 9.63696e-45 9.68665e-45 9.74141e-45 9.7992e-45 9.85844e-45 9.91798e-45 9.97706e-45 1.00352e-44 1.00921e-44 1.01477e-44 1.0202e-44 1.02554e-44 1.03082e-44 1.03612e-44 1.04153e-44 1.04719e-44 1.05324e-44 1.05983e-44 1.06711e-44 1.07518e-44 1.08407e-44 1.09373e-44 1.10399e-44 1.11453e-44 1.12491e-44 1.13455e-44 1.14275e-44 1.14873e-44 1.15166e-44 1.15068e-44 1.14499e-44 1.13387e-44 1.11671e-44 1.09311e-44 1.06281e-44 1.02583e-44 9.82368e-45 9.32886e-45 8.78052e-45 8.1873e-45 7.55947e-45 6.90847e-45 6.24641e-45 5.58552e-45 4.93761e-45 4.31356e-45 3.72284e-45 3.1732e-45 2.67042e-45 2.21824e-45 1.81835e-45 1.4706e-45 1.17321e-45 9.23092e-46 7.16214e-46 5.47915e-46 4.13246e-46 3.07251e-46 2.25184e-46 1.62673e-46 1.15829e-46 8.12883e-47 5.62272e-47 3.83331e-47 2.57583e-47 1.70603e-47 1.11378e-47 7.16753e-48 4.54699e-48 2.84371e-48 1.75341e-48 1.06598e-48 6.39013e-49 3.77751e-49 2.20227e-49 1.26631e-49 7.18221e-50 4.01847e-50 2.21815e-50 1.20806e-50 6.4923e-51 3.4432e-51 1.80229e-51 9.31169e-52 4.74918e-52 2.39133e-52 1.18887e-52 5.83646e-53 2.82961e-53 1.35491e-53 6.40816e-54 2.99349e-54 1.38032e-54 6.25983e-55 2.73701e-55 1.02311e-55 0 
0 3.23393e-75 1.22083e-74 4.25752e-74 1.46438e-73 4.99208e-73 1.68729e-72 5.65409e-72 1.87835e-71 6.18594e-71 2.01939e-70 6.53424e-70 2.09556e-69 6.66053e-69 2.09793e-68 6.54814e-68 2.02516e-67 6.20566e-67 1.88396e-66 5.66603e-66 1.68803e-65 4.98129e-65 1.45591e-64 4.21429e-64 1.20803e-63 3.42897e-63 9.6371e-63 2.68159e-62 7.38697e-62 2.01434e-61 5.43699e-61 1.45246e-60 3.84004e-60 1.00465e-59 2.60077e-59 6.66134e-59 1.68793e-58 4.23098e-58 1.04901e-57 2.57238e-57 6.23823e-57 1.49596e-56 3.54705e-56 8.31501e-56 1.92691e-55 4.41389e-55 9.99306e-55 2.23587e-54 4.94337e-54 1.07989e-53 2.33064e-53 4.96887e-53 1.04636e-52 2.17622e-52 4.46962e-52 9.06435e-52 1.8149e-51 3.58734e-51 6.99913e-51 1.34778e-50 2.56123e-50 4.80265e-50 8.88524e-50 1.62167e-49 2.91952e-49 5.18403e-49 9.07779e-49 1.56748e-48 2.66861e-48 4.47901e-48 7.41048e-48 1.20846e-47 1.94221e-47 3.07605e-47 4.80049e-47 7.38126e-47 1.11813e-46 1.66853e-46 2.4526e-46 3.55091e-46 5.06345e-46 7.11092e-46 9.83468e-46 1.33948e-45 1.79659e-45 2.373e-45 3.08665e-45 3.95396e-45 4.98835e-45 6.1986e-45 7.58732e-45 9.14954e-45 1.08718e-44 1.27315e-44 1.46978e-44 1.6732e-44 1.87899e-44 2.08244e-44 2.27882e-44 2.46374e-44 2.63344e-44 2.78506e-44 2.91684e-44 3.02817e-44 3.11964e-44 3.19288e-44 3.25038e-44 3.29518e-44 3.33064e-44 3.36004e-44 3.38643e-44 3.4123e-44 3.43952e-44 3.46927e-44 3.50205e-44 3.53776e-44 3.57589e-44 3.6156e-44 3.65597e-44 3.69608e-44 3.73516e-44 3.77263e-44 3.80818e-44 3.84167e-44 3.87315e-44 3.90273e-44 3.93055e-44 3.95664e-44 3.9809e-44 4.00304e-44 4.02257e-44 4.0388e-44 4.0509e-44 4.05795e-44 4.05899e-44 4.05316e-44 4.03972e-44 4.01817e-44 3.98831e-44 3.95026e-44 3.90448e-44 3.85181e-44 3.79342e-44 3.73072e-44 3.66539e-44 3.59922e-44 3.53403e-44 3.47161e-44 3.41361e-44 3.36145e-44 3.31626e-44 3.2788e-44 3.24951e-44 3.22843e-44 3.21525e-44 3.20938e-44 3.21e-44 3.21614e-44 3.22677e-44 3.24084e-44 3.25742e-44 3.27568e-44 3.29492e-44 3.31464e-44 3.33444e-44 3.35409e-44 3.37341e-44 3.39233e-44 3.41081e-44 3.42888e-44 3.44662e-44 3.46419e-44 3.48181e-44 3.49983e-44 3.51867e-44 3.53883e-44 3.56084e-44 3.58516e-44 3.61215e-44 3.64195e-44 3.67438e-44 3.70885e-44 3.74437e-44 3.77945e-44 3.81215e-44 3.84016e-44 3.86084e-44 3.87139e-44 3.86897e-44 3.85086e-44 3.8146e-44 3.75818e-44 3.68013e-44 3.57962e-44 3.45659e-44 3.31172e-44 3.14647e-44 2.96306e-44 2.76434e-44 2.55373e-44 2.33507e-44 2.11243e-44 1.88993e-44 1.67156e-44 1.46102e-44 1.26154e-44 1.07577e-44 9.05694e-45 7.52621e-45 6.17159e-45 4.99285e-45 3.98426e-45 3.1356e-45 2.43334e-45 1.86183e-45 1.40439e-45 1.04425e-45 7.65355e-46 5.52895e-46 3.93664e-46 2.76252e-46 1.91063e-46 1.30239e-46 8.75004e-47 5.79417e-47 3.78183e-47 2.4331e-47 1.54309e-47 9.64759e-48 5.94665e-48 3.61396e-48 2.16563e-48 1.27971e-48 7.45758e-49 4.28634e-49 2.43005e-49 1.35901e-49 7.49815e-50 4.08178e-50 2.19256e-50 1.16227e-50 6.08072e-51 3.1401e-51 1.60073e-51 8.05599e-52 4.00309e-52 1.96422e-52 9.51803e-53 4.55523e-53 2.15334e-53 1.0054e-53 4.63364e-54 2.10035e-54 9.17939e-55 3.43015e-55 0 