# vtk DataFile Version 3.0
Gray-Scott Simulation Output
ASCII
DATASET STRUCTURED_POINTS
DIMENSIONS 256 256 1
SPACING 1.0 1.0 1.0
ORIGIN 0 0 0
POINT_DATA 65536
SCALARS u double
LOOKUP_TABLE default
0 0 0 0 0 0 0 0 0 0 0 0 0 0 0 0 0 0 0 0 0 0 0 0 0 0 0 0 0 0 0 0 0 0 0 0 0 0 0 0 0 0 0 0 0 0 0 0 0 0 0 0 0 0 0 0 0 0 0 0 0 0 0 0 0 0 0 0 0 0 0 0 0 0 0 0 0 0 0 0 0 0 0 0 0 0 0 0 0 0 0 0 0 0 0 0 0 0 0 0 0 0 0 0 0 0 0 0 0 0 0 0 0 0 0 0 0 0 0 0 0 0 0 0 0 0 0 0 0 0 0 0 0 0 0 0 0 0 0 0 0 0 0 0 0 0 0 0 0 0 0 0 0 0 0 0 0 0 0 0 0 0 0 0 0 0 0 0 0 0 0 0 0 0 0 0 0 0 0 0 0 0 0 0 0 0 0 0 0 0 0 0 0 0 0 0 0 0 0 0 0 0 0 0 0 0 0 0 0 0 0 0 0 0 0 0 0 0 0 0 0 0 0 0 0 0 0 0 0 0 0 0 0 0 0 0 0 0 0 0 0 0 0 0 0 0 0 0 0 0 0 0 0 0 0 0 
0 1.10012e-99 6.22814e-99 3.38651e-98 1.82195e-97 9.70705e-97 5.12128e-96 2.67532e-95 1.38369e-94 7.08484e-94 3.59097e-93 1.80153e-92 8.94499e-92 4.39527e-91 2.13706e-90 1.02809e-89 4.89309e-89 2.30372e-88 1.07282e-87 4.94113e-87 2.25052e-86 1.01356e-85 4.5131e-85 1.98661e-84 8.64393e-84 3.71723e-83 1.57974e-82 6.63368e-82 2.75217e-81 1.12795e-80 4.56607e-80 1.82548e-79 7.20668e-79 2.80903e-78 1.08088e-77 4.10528e-77 1.53881e-76 5.69165e-76 2.07702e-75 7.47691e-75 2.65471e-74 9.29512e-74 3.20896e-73 1.09213e-72 3.66362e-72 1.21115e-71 3.9451e-71 1.26595e-70 4.0012e-70 1.24537e-69 3.81648e-69 1.15132e-68 3.41831e-68 9.98673e-68 2.8704e-67 8.11483e-67 2.25601e-66 6.16644e-66 1.65678e-65 4.37457e-65 1.13487e-64 2.89203e-64 7.23772e-64 1.77844e-63 4.28959e-63 1.01537e-62 2.35809e-62 5.37176e-62 1.20002e-61 2.62825e-61 5.64214e-61 1.1869e-60 2.44605e-60 4.93734e-60 9.75868e-60 1.88822e-59 3.57582e-59 6.6261e-59 1.20115e-58 2.12963e-58 3.69215e-58 6.25806e-58 1.03682e-57 1.67876e-57 2.65604e-57 4.10559e-57 6.19959e-57 9.14445e-57 1.31744e-56 1.85385e-56 2.54795e-56 3.42061e-56 4.486e-56 5.74816e-56 7.19804e-56 8.81153e-56 1.05492e-55 1.23578e-55 1.41744e-55 1.59318e-55 1.75655e-55 1.90206e-55 2.02587e-55 2.12617e-55 2.20344e-55 2.26029e-55 2.30115e-55 2.33163e-55 2.35779e-55 2.38534e-55 2.41902e-55 2.46198e-55 2.51558e-55 2.57931e-55 2.65106e-55 2.72756e-55 2.80495e-55 2.8794e-55 2.94767e-55 3.00753e-55 3.058e-55 3.09935e-55 3.13291e-55 3.16079e-55 3.18546e-55 3.20929e-55 3.23427e-55 3.26168e-55 3.29198e-55 3.32476e-55 3.35882e-55 3.39232e-55 3.42295e-55 3.44814e-55 3.4653e-55 3.47198e-55 3.46611e-55 3.44615e-55 3.41122e-55 3.36123e-55 3.29685e-55 3.21956e-55 3.13151e-55 3.03543e-55 2.93445e-55 2.83193e-55 2.73132e-55 2.63598e-55 2.54899e-55 2.47307e-55 2.41039e-55 2.36242e-55 2.32982e-55 2.3124e-55 2.30906e-55 2.31794e-55 2.33657e-55 2.36216e-55 2.39191e-55 2.42328e-55 2.45429e-55 2.48367e-55 2.51087e-55 2.536e-55 2.55965e-55 2.58259e-55 2.60554e-55 2.62893e-55 2.65275e-55 2.67652e-55 2.6994e-55 2.72041e-55 2.73868e-55 2.7538e-55 2.76602e-55 2.77641e-55 2.78683e-55 2.79975e-55 2.81791e-55 2.84386e-55 2.87951e-55 2.92568e-55 2.98175e-55 3.0456e-55 3.11355e-55 3.1807e-55 3.24128e-55 3.28914e-55 3.31832e-55 3.32351e-55 3.30044e-55 3.24621e-55 3.15946e-55 3.04036e-55 2.89062e-55 2.71338e-55 2.51295e-55 2.29464e-55 2.06445e-55 1.82874e-55 1.59389e-55 1.36592e-55 1.15019e-55 9.51085e-56 7.71832e-56 6.14394e-56 4.79494e-56 3.66729e-56 2.74772e-56 2.01618e-56 1.44843e-56 1.01856e-56 7.0101e-57 4.72125e-57 3.11135e-57 2.00622e-57 1.26573e-57 7.81351e-58 4.71965e-58 2.78974e-58 1.61379e-58 9.13702e-59 5.06402e-59 2.74776e-59 1.4599e-59 7.59626e-60 3.87156e-60 1.93314e-60 9.45832e-61 4.5355e-61 2.13199e-61 9.82614e-62 4.44132e-62 1.96909e-62 8.56513e-63 3.65607e-63 1.53179e-63 6.30061e-64 2.54483e-64 1.00954e-64 3.93428e-65 1.50654e-65 5.66968e-66 2.09745e-66 7.62901e-67 2.72884e-67 9.60081e-68 3.32312e-68 1.13181e-68 3.79386e-69 1.25183e-69 4.06653e-70 1.3e-70 4.06451e-71 1.15513e-71 0 
0 6.22956e-99 3.52651e-98 1.91738e-97 1.03148e-96 5.49514e-96 2.89895e-95 1.51429e-94 7.8315e-94 4.00969e-93 2.0322e-92 1.01947e-91 5.06161e-91 2.48699e-90 1.20916e-89 5.81674e-89 2.76831e-88 1.30331e-87 6.06915e-87 2.79521e-86 1.27309e-85 5.73344e-85 2.55289e-84 1.12373e-83 4.8894e-83 2.10262e-82 8.93559e-82 3.75225e-81 1.55673e-80 6.38014e-80 2.58278e-79 1.03259e-78 4.07656e-78 1.589e-77 6.11448e-77 2.3224e-76 8.70548e-76 3.22006e-75 1.17513e-74 4.23047e-74 1.50213e-73 5.2598e-73 1.81596e-72 6.18079e-72 2.07353e-71 6.85536e-71 2.23319e-70 7.16673e-70 2.26534e-69 7.05156e-69 2.16118e-68 6.52032e-68 1.93612e-67 5.65709e-67 1.62616e-66 4.59782e-66 1.27841e-65 3.49477e-65 9.39089e-65 2.47992e-64 6.43444e-64 1.63995e-63 4.1048e-63 1.00878e-62 2.43354e-62 5.76122e-62 1.3382e-61 3.04892e-61 6.81221e-61 1.49224e-60 3.20395e-60 6.74102e-60 1.38947e-59 2.8051e-59 5.5452e-59 1.07312e-58 2.03255e-58 3.76694e-58 6.82961e-58 1.21106e-57 2.09992e-57 3.55978e-57 5.89851e-57 9.55178e-57 1.5114e-56 2.33652e-56 3.5286e-56 5.20521e-56 7.49981e-56 1.05542e-55 1.45068e-55 1.94764e-55 2.55438e-55 3.2732e-55 4.09893e-55 5.01784e-55 6.00744e-55 7.03745e-55 8.07197e-55 9.0727e-55 1.00029e-54 1.08314e-54 1.15362e-54 1.2107e-54 1.25466e-54 1.28699e-54 1.31019e-54 1.32748e-54 1.34227e-54 1.35785e-54 1.37689e-54 1.40119e-54 1.43153e-54 1.46762e-54 1.50827e-54 1.55161e-54 1.59547e-54 1.63767e-54 1.67636e-54 1.71029e-54 1.7389e-54 1.76233e-54 1.78135e-54 1.79715e-54 1.81112e-54 1.82462e-54 1.83876e-54 1.85429e-54 1.87145e-54 1.89002e-54 1.90932e-54 1.9283e-54 1.94566e-54 1.95994e-54 1.96967e-54 1.97347e-54 1.97016e-54 1.95886e-54 1.93909e-54 1.91077e-54 1.8743e-54 1.83051e-54 1.78061e-54 1.72616e-54 1.66893e-54 1.61082e-54 1.55379e-54 1.49974e-54 1.45043e-54 1.40739e-54 1.37186e-54 1.34467e-54 1.3262e-54 1.31634e-54 1.31447e-54 1.31952e-54 1.33011e-54 1.34465e-54 1.36153e-54 1.37934e-54 1.39693e-54 1.41358e-54 1.429e-54 1.44323e-54 1.45662e-54 1.46961e-54 1.48261e-54 1.49585e-54 1.50935e-54 1.52281e-54 1.53578e-54 1.54769e-54 1.55805e-54 1.56662e-54 1.57354e-54 1.57942e-54 1.58532e-54 1.59262e-54 1.60289e-54 1.61758e-54 1.63776e-54 1.6639e-54 1.69567e-54 1.73183e-54 1.77033e-54 1.80838e-54 1.84271e-54 1.86983e-54 1.88637e-54 1.88929e-54 1.8762e-54 1.84544e-54 1.79621e-54 1.72863e-54 1.64365e-54 1.54303e-54 1.42923e-54 1.30524e-54 1.17447e-54 1.04053e-54 9.07034e-55 7.7742e-55 6.54733e-55 5.41473e-55 4.3948e-55 3.49879e-55 2.7309e-55 2.08888e-55 1.56524e-55 1.14861e-55 8.25218e-56 5.80337e-56 3.99425e-56 2.69016e-56 1.77286e-56 1.14315e-56 7.21204e-57 4.45194e-57 2.68903e-57 1.58938e-57 9.19351e-58 5.20485e-58 2.88445e-58 1.56497e-58 8.31396e-59 4.32553e-59 2.20433e-59 1.10053e-59 5.38396e-60 2.58142e-60 1.21328e-60 5.59118e-61 2.52682e-61 1.12013e-61 4.87169e-62 2.07922e-62 8.71017e-63 3.58222e-63 1.44667e-63 5.73821e-64 2.23595e-64 8.56093e-65 3.2214e-65 1.19158e-65 4.33359e-66 1.54991e-66 5.45239e-67 1.88702e-67 6.42627e-68 2.15388e-68 7.10625e-69 2.30822e-69 7.37832e-70 2.30666e-70 6.55504e-71 0 
0 3.38812e-98 1.91785e-97 1.04266e-96 5.6087e-96 2.98779e-95 1.57609e-94 8.23228e-94 4.25724e-93 2.17955e-92 1.10458e-91 5.5409e-91 2.75089e-90 1.35157e-89 6.57096e-89 3.16086e-88 1.50426e-87 7.08172e-87 3.29767e-86 1.51873e-85 6.91695e-85 3.11502e-84 1.38698e-83 6.10514e-83 2.65634e-82 1.14231e-81 4.85454e-81 2.03853e-80 8.45749e-80 3.46628e-79 1.40323e-78 5.61019e-78 2.21489e-77 8.63367e-77 3.32234e-76 1.26194e-75 4.73056e-75 1.74987e-74 6.38629e-74 2.2992e-73 8.16434e-73 2.85899e-72 9.87145e-72 3.36011e-71 1.12734e-70 3.72746e-70 1.21436e-69 3.89749e-69 1.23209e-68 3.83567e-68 1.1757e-67 3.54752e-67 1.05352e-66 3.07863e-66 8.85085e-66 2.50284e-65 6.96004e-65 1.90294e-64 5.11421e-64 1.35075e-63 3.50525e-63 8.93528e-63 2.23688e-62 5.4982e-62 1.32659e-61 3.14116e-61 7.29747e-61 1.66294e-60 3.71619e-60 8.14191e-60 1.74846e-59 3.67938e-59 7.58538e-59 1.53164e-58 3.02833e-58 5.86155e-58 1.1104e-57 2.05828e-57 3.73238e-57 6.61952e-57 1.14798e-56 1.94635e-56 3.22555e-56 5.22405e-56 8.26724e-56 1.27821e-55 1.93057e-55 2.84818e-55 4.10413e-55 5.77609e-55 7.93983e-55 1.06605e-54 1.39822e-54 1.79176e-54 2.24385e-54 2.74694e-54 3.28873e-54 3.85262e-54 4.41895e-54 4.96675e-54 5.47589e-54 5.9293e-54 6.31495e-54 6.62723e-54 6.8676e-54 7.04423e-54 7.17088e-54 7.265e-54 7.34542e-54 7.42999e-54 7.53337e-54 7.66544e-54 7.83042e-54 8.02678e-54 8.24803e-54 8.48404e-54 8.72287e-54 8.95267e-54 9.16342e-54 9.34823e-54 9.50401e-54 9.6316e-54 9.73515e-54 9.82114e-54 9.89717e-54 9.97063e-54 1.00476e-53 1.01321e-53 1.02255e-53 1.03266e-53 1.04317e-53 1.0535e-53 1.06296e-53 1.07074e-53 1.07604e-53 1.07812e-53 1.07632e-53 1.07018e-53 1.05942e-53 1.04401e-53 1.02416e-53 1.00032e-53 9.73151e-54 9.43499e-54 9.12328e-54 8.8068e-54 8.49617e-54 8.20174e-54 7.93312e-54 7.69868e-54 7.50514e-54 7.35705e-54 7.25651e-54 7.20288e-54 7.1928e-54 7.2205e-54 7.27834e-54 7.35768e-54 7.44979e-54 7.54685e-54 7.64274e-54 7.73348e-54 7.81742e-54 7.8949e-54 7.96775e-54 8.0384e-54 8.10909e-54 8.18117e-54 8.25461e-54 8.32794e-54 8.39857e-54 8.46342e-54 8.51985e-54 8.56651e-54 8.6042e-54 8.63618e-54 8.66821e-54 8.7079e-54 8.76371e-54 8.84356e-54 8.95334e-54 9.09558e-54 9.26845e-54 9.46532e-54 9.67492e-54 9.8821e-54 1.0069e-53 1.02167e-53 1.03067e-53 1.03226e-53 1.02512e-53 1.00835e-53 9.81513e-54 9.44659e-54 8.98309e-54 8.43418e-54 7.81318e-54 7.13642e-54 6.42242e-54 5.69089e-54 4.9616e-54 4.25329e-54 3.58264e-54 2.96335e-54 2.40552e-54 1.91535e-54 1.49517e-54 1.14379e-54 8.57152e-55 6.29049e-55 4.51973e-55 3.17869e-55 2.18786e-55 1.47357e-55 9.71115e-56 6.26176e-56 3.95042e-56 2.43848e-56 1.4728e-56 8.70459e-57 5.03467e-57 2.85011e-57 1.57934e-57 8.5679e-58 4.55121e-58 2.36759e-58 1.2064e-58 6.02225e-59 2.94576e-59 1.41219e-59 6.63642e-60 3.05781e-60 1.38171e-60 6.12415e-61 2.66312e-61 1.13644e-61 4.75998e-62 1.95733e-62 7.90348e-63 3.13443e-63 1.22118e-63 4.67495e-64 1.75889e-64 6.50515e-65 2.3655e-65 8.45908e-66 2.97542e-66 1.02963e-66 3.50601e-67 1.17496e-67 3.87609e-68 1.25888e-68 4.02363e-69 1.25778e-69 3.57404e-70 0 
0 1.82328e-97 1.03199e-96 5.61011e-96 3.01759e-95 1.60737e-94 8.4785e-94 4.42823e-93 2.28987e-92 1.17226e-91 5.94062e-91 2.97983e-90 1.47932e-89 7.26786e-89 3.53329e-88 1.69957e-87 8.08801e-87 3.80753e-86 1.77296e-85 8.16511e-85 3.71866e-84 1.67466e-83 7.4564e-83 3.28208e-82 1.42803e-81 6.14097e-81 2.60976e-80 1.09591e-79 4.54676e-79 1.86351e-78 7.54404e-78 3.01623e-77 1.19084e-76 4.64205e-76 1.78639e-75 6.7856e-75 2.54381e-74 9.41021e-74 3.43454e-73 1.23659e-72 4.39136e-72 1.53788e-71 5.31037e-71 1.80773e-70 6.06561e-70 2.00573e-69 6.5351e-69 2.09766e-68 6.63194e-68 2.06485e-67 6.3299e-67 1.91021e-66 5.67353e-66 1.65817e-65 4.76781e-65 1.34844e-64 3.75038e-64 1.02555e-63 2.75664e-63 7.28196e-63 1.89001e-62 4.8187e-62 1.20654e-61 2.96618e-61 7.15804e-61 1.69523e-60 3.93905e-60 8.978e-60 2.00671e-59 4.3974e-59 9.44516e-59 1.98799e-58 4.09922e-58 8.27873e-58 1.63717e-57 3.16947e-57 6.00532e-57 1.11337e-56 2.01929e-56 3.58192e-56 6.21294e-56 1.05355e-55 1.74625e-55 2.82861e-55 4.477e-55 6.92288e-55 1.04574e-54 1.54295e-54 2.22356e-54 3.12968e-54 4.30241e-54 5.77705e-54 7.57756e-54 9.71077e-54 1.21613e-53 1.48884e-53 1.7825e-53 2.08814e-53 2.39508e-53 2.69196e-53 2.96785e-53 3.21351e-53 3.42241e-53 3.59153e-53 3.72163e-53 3.81716e-53 3.88556e-53 3.93628e-53 3.97953e-53 4.02496e-53 4.08051e-53 4.15154e-53 4.24034e-53 4.3461e-53 4.46531e-53 4.59251e-53 4.72125e-53 4.84514e-53 4.95876e-53 5.0584e-53 5.14238e-53 5.21116e-53 5.26696e-53 5.31329e-53 5.35425e-53 5.39382e-53 5.43528e-53 5.4808e-53 5.53112e-53 5.58559e-53 5.64221e-53 5.69793e-53 5.7489e-53 5.79086e-53 5.81949e-53 5.83073e-53 5.82111e-53 5.78807e-53 5.73013e-53 5.6471e-53 5.54013e-53 5.41164e-53 5.2652e-53 5.10536e-53 4.93732e-53 4.76669e-53 4.5992e-53 4.44043e-53 4.29558e-53 4.16917e-53 4.06481e-53 3.98498e-53 3.9308e-53 3.90193e-53 3.89657e-53 3.91158e-53 3.94286e-53 3.98573e-53 4.03547e-53 4.08786e-53 4.1396e-53 4.18853e-53 4.23377e-53 4.27551e-53 4.31474e-53 4.35278e-53 4.39085e-53 4.42967e-53 4.46924e-53 4.50876e-53 4.54683e-53 4.5818e-53 4.61222e-53 4.63738e-53 4.65768e-53 4.6749e-53 4.69212e-53 4.71346e-53 4.74348e-53 4.78646e-53 4.84556e-53 4.92217e-53 5.0153e-53 5.12139e-53 5.23436e-53 5.34603e-53 5.44678e-53 5.52641e-53 5.57494e-53 5.5835e-53 5.54497e-53 5.45446e-53 5.30961e-53 5.11067e-53 4.86042e-53 4.56399e-53 4.22852e-53 3.86284e-53 3.47692e-53 3.0814e-53 2.68697e-53 2.30377e-53 1.94084e-53 1.6056e-53 1.30356e-53 1.03808e-53 8.10453e-54 6.20062e-54 4.64719e-54 3.41078e-54 2.45082e-54 1.72374e-54 1.18647e-54 7.99134e-55 5.26648e-55 3.3958e-55 2.14228e-55 1.32232e-55 7.98613e-56 4.71966e-56 2.7296e-56 1.54508e-56 8.5609e-57 4.64376e-57 2.46644e-57 1.2829e-57 6.53611e-58 3.26232e-58 1.59552e-58 7.64771e-59 3.5934e-59 1.65544e-59 7.47914e-60 3.31444e-60 1.44107e-60 6.14849e-61 2.57489e-61 1.05864e-61 4.27396e-62 1.69474e-62 6.60172e-63 2.52689e-63 9.50565e-64 3.51508e-64 1.27802e-64 4.56959e-65 1.60709e-65 5.56055e-66 1.89318e-66 6.34376e-67 2.0925e-67 6.79523e-68 2.17165e-68 6.7878e-69 1.92862e-69 0 
0 9.71656e-97 5.49927e-96 2.9893e-95 1.60778e-94 8.56358e-94 4.51679e-93 2.35892e-92 1.21975e-91 6.24395e-91 3.16405e-90 1.58702e-89 7.87832e-89 3.87042e-88 1.88154e-87 9.0502e-87 4.30672e-86 2.02738e-85 9.44019e-85 4.34745e-84 1.97994e-83 8.91631e-83 3.96995e-82 1.74744e-81 7.60307e-81 3.26958e-80 1.3895e-79 5.83494e-79 2.42087e-78 9.92225e-78 4.01693e-77 1.60608e-76 6.3412e-76 2.47199e-75 9.5133e-75 3.61381e-74 1.35483e-73 5.01217e-73 1.82946e-72 6.58733e-72 2.33947e-71 8.19362e-71 2.82954e-70 9.63305e-70 3.23256e-69 1.06903e-68 3.48351e-68 1.11827e-67 3.53595e-67 1.10105e-66 3.37576e-66 1.01886e-65 3.02655e-65 8.84683e-65 2.54415e-64 7.19653e-64 2.00187e-63 5.47507e-63 1.47193e-62 3.88895e-62 1.00955e-61 2.57437e-61 6.4471e-61 1.58527e-60 3.82635e-60 9.06367e-60 2.10647e-59 4.80209e-59 1.07355e-58 2.35302e-58 5.05507e-58 1.06419e-57 2.19482e-57 4.43353e-57 8.76937e-57 1.69804e-56 3.21798e-56 5.96722e-56 1.08246e-55 1.92048e-55 3.33172e-55 5.65069e-55 9.3675e-55 1.5176e-54 2.40235e-54 3.71533e-54 5.6129e-54 8.28262e-54 1.19374e-53 1.68036e-53 2.3102e-53 3.10224e-53 4.06933e-53 5.21515e-53 6.53143e-53 7.99621e-53 9.57355e-53 1.12151e-52 1.28635e-52 1.44577e-52 1.59391e-52 1.72579e-52 1.83792e-52 1.92865e-52 1.99842e-52 2.0496e-52 2.08619e-52 2.11327e-52 2.1363e-52 2.16046e-52 2.19003e-52 2.22788e-52 2.27523e-52 2.33166e-52 2.39529e-52 2.46321e-52 2.53197e-52 2.59814e-52 2.65884e-52 2.71206e-52 2.75691e-52 2.79364e-52 2.82343e-52 2.84817e-52 2.87002e-52 2.89114e-52 2.91326e-52 2.93756e-52 2.96442e-52 2.9935e-52 3.02373e-52 3.05349e-52 3.08071e-52 3.10314e-52 3.11845e-52 3.12448e-52 3.11937e-52 3.10175e-52 3.07084e-52 3.02653e-52 2.96942e-52 2.90081e-52 2.82261e-52 2.73724e-52 2.64749e-52 2.55634e-52 2.46686e-52 2.38205e-52 2.30466e-52 2.23712e-52 2.18137e-52 2.13873e-52 2.10981e-52 2.09442e-52 2.09159e-52 2.09966e-52 2.11642e-52 2.13936e-52 2.16598e-52 2.194e-52 2.22165e-52 2.24779e-52 2.27195e-52 2.29423e-52 2.31516e-52 2.33545e-52 2.35575e-52 2.37647e-52 2.39759e-52 2.41869e-52 2.43903e-52 2.45771e-52 2.47396e-52 2.4874e-52 2.49823e-52 2.50741e-52 2.51659e-52 2.52795e-52 2.54395e-52 2.56686e-52 2.59839e-52 2.63927e-52 2.68898e-52 2.74562e-52 2.80595e-52 2.86558e-52 2.9194e-52 2.96194e-52 2.98786e-52 2.99243e-52 2.97183e-52 2.92344e-52 2.84599e-52 2.7396e-52 2.60573e-52 2.44712e-52 2.26757e-52 2.0718e-52 1.86512e-52 1.65324e-52 1.44187e-52 1.23645e-52 1.04184e-52 8.62025e-53 6.99969e-53 5.57496e-53 4.35307e-53 3.33084e-53 2.49663e-53 1.83254e-53 1.31687e-53 9.26241e-54 6.37567e-54 4.29433e-54 2.83007e-54 1.82479e-54 1.15116e-54 7.10513e-55 4.29089e-55 2.53565e-55 1.46636e-55 8.29942e-56 4.598e-56 2.49384e-56 1.32438e-56 6.88774e-57 3.50864e-57 1.75098e-57 8.56226e-58 4.10344e-58 1.92775e-58 8.87948e-59 4.01098e-59 1.77719e-59 7.72564e-60 3.29567e-60 1.37993e-60 5.67249e-61 2.28972e-61 9.07783e-62 3.53561e-62 1.35307e-62 5.08918e-63 1.88162e-63 6.84018e-64 2.44535e-64 8.59888e-65 2.97479e-65 1.01267e-65 3.39287e-66 1.119e-66 3.6334e-67 1.16104e-67 3.62858e-68 1.03089e-68 0 
0 5.12763e-96 2.90188e-95 1.5773e-94 8.48286e-94 4.51795e-93 2.38281e-92 1.24437e-91 6.43399e-91 3.29342e-90 1.66882e-89 8.37005e-89 4.15491e-88 2.04113e-87 9.92225e-87 4.77244e-86 2.271e-85 1.06904e-84 4.97772e-84 2.29233e-83 1.04397e-82 4.70131e-82 2.09323e-81 9.2137e-81 4.00886e-80 1.72396e-79 7.32655e-79 3.0767e-78 1.27653e-77 5.23214e-77 2.11825e-76 8.46965e-76 3.34416e-75 1.30371e-74 5.01752e-74 1.90611e-73 7.1465e-73 2.64401e-72 9.65143e-72 3.47545e-71 1.2344e-70 4.32366e-70 1.49325e-69 5.08421e-69 1.70629e-68 5.64343e-68 1.83916e-67 5.90479e-67 1.86731e-66 5.81537e-66 1.78321e-65 5.38278e-65 1.59921e-64 4.67533e-64 1.34474e-63 3.80443e-63 1.05847e-62 2.89539e-62 7.78544e-62 2.05736e-61 5.34179e-61 1.36243e-60 3.41267e-60 8.39308e-60 2.02625e-59 4.80067e-59 1.11595e-58 2.54456e-58 5.68983e-58 1.24737e-57 2.68035e-57 5.64391e-57 1.16426e-56 2.35232e-56 4.65381e-56 9.01322e-56 1.70847e-55 3.16872e-55 5.74926e-55 1.02022e-54 1.77025e-54 3.00293e-54 4.97901e-54 8.06771e-54 1.27731e-53 1.97569e-53 2.98516e-53 4.40556e-53 6.35027e-53 8.9398e-53 1.22917e-52 1.6507e-52 2.16542e-52 2.77528e-52 3.47586e-52 4.25547e-52 5.09497e-52 5.96858e-52 6.84578e-52 7.69405e-52 8.48216e-52 9.18366e-52 9.7799e-52 1.02622e-51 1.06329e-51 1.09045e-51 1.10984e-51 1.12415e-51 1.13629e-51 1.14902e-51 1.16461e-51 1.18458e-51 1.20959e-51 1.23942e-51 1.27308e-51 1.30901e-51 1.34539e-51 1.38041e-51 1.41252e-51 1.44069e-51 1.46442e-51 1.48385e-51 1.49961e-51 1.51269e-51 1.52425e-51 1.53541e-51 1.54711e-51 1.55995e-51 1.57415e-51 1.58953e-51 1.60553e-51 1.62127e-51 1.63569e-51 1.64756e-51 1.65567e-51 1.65887e-51 1.65619e-51 1.64688e-51 1.63055e-51 1.60711e-51 1.57691e-51 1.54062e-51 1.49924e-51 1.45407e-51 1.40657e-51 1.35834e-51 1.31098e-51 1.26609e-51 1.22513e-51 1.18938e-51 1.15988e-51 1.13731e-51 1.12202e-51 1.11389e-51 1.11241e-51 1.11671e-51 1.1256e-51 1.13777e-51 1.15188e-51 1.16673e-51 1.18137e-51 1.19521e-51 1.20799e-51 1.21976e-51 1.23082e-51 1.24155e-51 1.25228e-51 1.26323e-51 1.27439e-51 1.28556e-51 1.29632e-51 1.30621e-51 1.31481e-51 1.32192e-51 1.32765e-51 1.3325e-51 1.33734e-51 1.34333e-51 1.35178e-51 1.36388e-51 1.38054e-51 1.40215e-51 1.42844e-51 1.4584e-51 1.49032e-51 1.52188e-51 1.55036e-51 1.57287e-51 1.5866e-51 1.58901e-51 1.5781e-51 1.55248e-51 1.51145e-51 1.45508e-51 1.38413e-51 1.30005e-51 1.20484e-51 1.101e-51 9.91334e-52 8.78869e-52 7.66641e-52 6.57538e-52 5.54141e-52 4.58578e-52 3.72426e-52 2.96666e-52 2.31675e-52 1.77292e-52 1.32902e-52 9.756e-53 7.01115e-53 4.93166e-53 3.39476e-53 2.28658e-53 1.50691e-53 9.7161e-54 6.12913e-54 3.78281e-54 2.28434e-54 1.34979e-54 7.80507e-55 4.41711e-55 2.44686e-55 1.32694e-55 7.0459e-56 3.66384e-56 1.86609e-56 9.31119e-57 4.5524e-57 2.18136e-57 1.0246e-57 4.71859e-58 2.13107e-58 9.44068e-59 4.10321e-59 1.75006e-59 7.32637e-60 3.0111e-60 1.21522e-60 4.81701e-61 1.87578e-61 7.17737e-62 2.69909e-62 9.97767e-63 3.62654e-63 1.29627e-63 4.55753e-64 1.57644e-64 5.36571e-65 1.79747e-65 5.92739e-66 1.92438e-66 6.14848e-67 1.92134e-67 5.45807e-68 0 
0 2.67934e-95 1.51622e-94 8.24074e-94 4.43167e-93 2.36015e-92 1.24469e-91 6.49976e-91 3.36052e-90 1.72009e-89 8.71554e-89 4.37114e-88 2.16976e-87 1.06587e-86 5.1812e-86 2.492e-85 1.18581e-84 5.58192e-84 2.59903e-83 1.19689e-82 5.45082e-82 2.45464e-81 1.09291e-80 4.81067e-80 2.09313e-79 9.00136e-79 3.8255e-78 1.60651e-77 6.66561e-77 2.73214e-76 1.10616e-75 4.42306e-75 1.74648e-74 6.80897e-74 2.62068e-73 9.95632e-73 3.73314e-72 1.38126e-71 5.04241e-71 1.81591e-70 6.45025e-70 2.25952e-69 7.8044e-69 2.65752e-68 8.91979e-68 2.95051e-67 9.61675e-67 3.08794e-66 9.76655e-66 3.04203e-65 9.32935e-65 2.81659e-64 8.36935e-64 2.4472e-63 7.03993e-63 1.99204e-62 5.54325e-62 1.51661e-61 4.07882e-61 1.07807e-60 2.7997e-60 7.14216e-60 1.78937e-59 4.40169e-59 1.06288e-58 2.51878e-58 5.85638e-58 1.33566e-57 2.98731e-57 6.55052e-57 1.4079e-56 2.96524e-56 6.1183e-56 1.23645e-55 2.44673e-55 4.73974e-55 8.9862e-55 1.66705e-54 3.02529e-54 5.36956e-54 9.31892e-54 1.5811e-53 2.62203e-53 4.24932e-53 6.72878e-53 1.04094e-52 1.57303e-52 2.32181e-52 3.34709e-52 4.71246e-52 6.47994e-52 8.70283e-52 1.14172e-51 1.46334e-51 1.83281e-51 2.24394e-51 2.68664e-51 3.14729e-51 3.6098e-51 4.057e-51 4.47242e-51 4.8421e-51 5.15622e-51 5.41022e-51 5.60527e-51 5.74806e-51 5.8498e-51 5.92471e-51 5.98811e-51 6.05452e-51 6.13589e-51 6.24027e-51 6.37114e-51 6.52733e-51 6.70363e-51 6.89194e-51 7.08264e-51 7.26622e-51 7.4346e-51 7.58224e-51 7.70666e-51 7.80849e-51 7.89106e-51 7.95957e-51 8.02008e-51 8.07853e-51 8.13979e-51 8.20706e-51 8.28148e-51 8.36207e-51 8.4459e-51 8.52844e-51 8.604e-51 8.66629e-51 8.70887e-51 8.72574e-51 8.71175e-51 8.66308e-51 8.57753e-51 8.45479e-51 8.29653e-51 8.10633e-51 7.88949e-51 7.6527e-51 7.4037e-51 7.1508e-51 6.90251e-51 6.66712e-51 6.45234e-51 6.26491e-51 6.11021e-51 5.99195e-51 5.91179e-51 5.86925e-51 5.86164e-51 5.88429e-51 5.93108e-51 5.99503e-51 6.06911e-51 6.14704e-51 6.22386e-51 6.29641e-51 6.36337e-51 6.42506e-51 6.48296e-51 6.53907e-51 6.59524e-51 6.65258e-51 6.71109e-51 6.76959e-51 6.826e-51 6.87783e-51 6.92293e-51 6.9602e-51 6.99022e-51 7.01558e-51 7.04088e-51 7.07222e-51 7.11636e-51 7.17968e-51 7.2669e-51 7.3801e-51 7.51784e-51 7.67485e-51 7.84214e-51 8.00757e-51 8.15691e-51 8.27497e-51 8.34695e-51 8.35965e-51 8.30243e-51 8.16798e-51 7.95269e-51 7.6568e-51 7.28433e-51 6.84276e-51 6.34261e-51 5.79689e-51 5.22042e-51 4.62901e-51 4.03865e-51 3.46453e-51 2.92026e-51 2.41707e-51 1.9633e-51 1.56415e-51 1.22166e-51 9.35003e-52 7.00974e-52 5.1461e-52 3.6985e-52 2.60166e-52 1.79093e-52 1.20632e-52 7.94986e-53 5.12572e-53 3.23328e-53 1.99542e-53 1.20489e-53 7.11897e-54 4.11607e-54 2.32913e-54 1.29006e-54 6.99508e-55 3.71376e-55 1.93084e-55 9.83266e-56 4.90534e-56 2.39788e-56 1.14878e-56 5.39488e-57 2.48405e-57 1.12166e-57 4.96803e-58 2.15884e-58 9.2059e-59 3.85317e-59 1.58333e-59 6.38879e-60 2.53197e-60 9.85785e-61 3.77124e-61 1.41794e-61 5.24074e-62 1.9045e-62 6.8063e-63 2.39261e-63 8.27465e-64 2.81599e-64 9.43191e-65 3.10983e-65 1.00949e-65 3.22493e-66 1.00763e-66 2.86213e-67 0 
0 1.38614e-94 7.84357e-94 4.26276e-93 2.29226e-92 1.22071e-91 6.4374e-91 3.36142e-90 1.73784e-89 8.8948e-89 4.50672e-88 2.26018e-87 1.12188e-86 5.51092e-86 2.67879e-85 1.28838e-84 6.13059e-84 2.88579e-83 1.34365e-82 6.18764e-82 2.81794e-81 1.26899e-80 5.65013e-80 2.48703e-79 1.08213e-78 4.65369e-78 1.97782e-77 8.30604e-77 3.44639e-76 1.41268e-75 5.71973e-75 2.28719e-74 9.03165e-74 3.52135e-73 1.3554e-72 5.14972e-72 1.93104e-71 7.14542e-71 2.60872e-70 9.39558e-70 3.3377e-69 1.16931e-68 4.03927e-68 1.37559e-67 4.61764e-67 1.52763e-66 4.97974e-66 1.59922e-65 5.05875e-65 1.57591e-64 4.83379e-64 1.45959e-63 4.33782e-63 1.2686e-62 3.65009e-62 1.03303e-61 2.87517e-61 7.86793e-61 2.11645e-60 5.59513e-60 1.45334e-59 3.70835e-59 9.29281e-59 2.28647e-58 5.52242e-58 1.30899e-57 3.04423e-57 6.9446e-57 1.55359e-56 3.40751e-56 7.32551e-56 1.54323e-55 3.18498e-55 6.43807e-55 1.27429e-54 2.46911e-54 4.68235e-54 8.68829e-54 1.57707e-53 2.79973e-53 4.85997e-53 8.24737e-53 1.36797e-52 2.21737e-52 3.51181e-52 5.43363e-52 8.2123e-52 1.21231e-51 1.74787e-51 2.46114e-51 3.38454e-51 4.54594e-51 5.9642e-51 7.64467e-51 9.57514e-51 1.17233e-50 1.40362e-50 1.64427e-50 1.88588e-50 2.11945e-50 2.33638e-50 2.52938e-50 2.69333e-50 2.82582e-50 2.9275e-50 3.00184e-50 3.05471e-50 3.09353e-50 3.1263e-50 3.1606e-50 3.20266e-50 3.25669e-50 3.32451e-50 3.40552e-50 3.49701e-50 3.59476e-50 3.69378e-50 3.78912e-50 3.87657e-50 3.95324e-50 4.01784e-50 4.0707e-50 4.11356e-50 4.1491e-50 4.18049e-50 4.2108e-50 4.24258e-50 4.27748e-50 4.3161e-50 4.35793e-50 4.40146e-50 4.44432e-50 4.48357e-50 4.51593e-50 4.53808e-50 4.54689e-50 4.53967e-50 4.51445e-50 4.47008e-50 4.4064e-50 4.32426e-50 4.22552e-50 4.11293e-50 3.98998e-50 3.86067e-50 3.72933e-50 3.60037e-50 3.47811e-50 3.36655e-50 3.26919e-50 3.18885e-50 3.12744e-50 3.08585e-50 3.0638e-50 3.05991e-50 3.07175e-50 3.09613e-50 3.12941e-50 3.16795e-50 3.20847e-50 3.24839e-50 3.28607e-50 3.32082e-50 3.35282e-50 3.38284e-50 3.41193e-50 3.44106e-50 3.4708e-50 3.50116e-50 3.53153e-50 3.56082e-50 3.58774e-50 3.61116e-50 3.63051e-50 3.64609e-50 3.65923e-50 3.67232e-50 3.68854e-50 3.7114e-50 3.74421e-50 3.78945e-50 3.84818e-50 3.91966e-50 4.00117e-50 4.08803e-50 4.17396e-50 4.25153e-50 4.31286e-50 4.35027e-50 4.35688e-50 4.32716e-50 4.2573e-50 4.14539e-50 3.99155e-50 3.79784e-50 3.56811e-50 3.30784e-50 3.02375e-50 2.72354e-50 2.41545e-50 2.1078e-50 1.80851e-50 1.52467e-50 1.26218e-50 1.0254e-50 8.17053e-51 6.38237e-51 4.88537e-51 3.66296e-51 2.68934e-51 1.93296e-51 1.35978e-51 9.36073e-52 6.30515e-52 4.15517e-52 2.679e-52 1.68982e-52 1.04281e-52 6.29625e-53 3.71971e-53 2.15044e-53 1.21671e-53 6.73817e-54 3.6531e-54 1.93916e-54 1.00803e-54 5.13243e-55 2.56002e-55 1.25118e-55 5.99301e-56 2.81388e-56 1.29538e-56 5.84807e-57 2.58968e-57 1.12511e-57 4.79679e-58 2.0073e-58 8.24665e-59 3.32689e-59 1.31823e-59 5.13132e-60 1.96267e-60 7.37796e-61 2.7264e-61 9.90599e-62 3.53957e-62 1.24404e-62 4.30168e-63 1.46368e-63 4.90169e-64 1.6159e-64 5.24462e-65 1.67521e-65 5.23349e-66 1.48638e-66 0 
0 7.09932e-94 4.01696e-93 2.18297e-92 1.17381e-91 6.25057e-91 3.29606e-90 1.72102e-89 8.89721e-89 4.55367e-88 2.30711e-87 1.15701e-86 5.7428e-86 2.82092e-85 1.37118e-84 6.59467e-84 3.13793e-83 1.47706e-82 6.87731e-82 3.16705e-81 1.44232e-80 6.49516e-80 2.89197e-79 1.27298e-78 5.53895e-78 2.38208e-77 1.01241e-76 4.25187e-76 1.76428e-75 7.2321e-75 2.92831e-74 1.17103e-73 4.62442e-73 1.80313e-72 6.94093e-72 2.63734e-71 9.89028e-71 3.66001e-70 1.33636e-69 4.8135e-69 1.71014e-68 5.99187e-68 2.07007e-67 7.0506e-67 2.36708e-66 7.83193e-66 2.5534e-65 8.20134e-65 2.5947e-64 8.08434e-64 2.48013e-63 7.49017e-63 2.22644e-62 6.51248e-62 1.87416e-61 5.30522e-61 1.47687e-60 4.04231e-60 1.0876e-59 2.87586e-59 7.47175e-59 1.90693e-58 4.77973e-58 1.17632e-57 2.84181e-57 6.73764e-57 1.56732e-56 3.57632e-56 8.00268e-56 1.75568e-55 3.77535e-55 7.9554e-55 1.64228e-54 3.32053e-54 6.57401e-54 1.27412e-53 2.41679e-53 4.48552e-53 8.14389e-53 1.44609e-52 2.51079e-52 4.26171e-52 7.07023e-52 1.14625e-51 1.81572e-51 2.80985e-51 4.24743e-51 6.27101e-51 9.04249e-51 1.2734e-50 1.75134e-50 2.3525e-50 3.08666e-50 3.95655e-50 4.95585e-50 6.06779e-50 7.26496e-50 8.5105e-50 9.76078e-50 1.09693e-49 1.20915e-49 1.30897e-49 1.39373e-49 1.46219e-49 1.51469e-49 1.55302e-49 1.58022e-49 1.60014e-49 1.6169e-49 1.63444e-49 1.65596e-49 1.68366e-49 1.71846e-49 1.76008e-49 1.80711e-49 1.85737e-49 1.9083e-49 1.95734e-49 2.00232e-49 2.04176e-49 2.07498e-49 2.10217e-49 2.12419e-49 2.14246e-49 2.15858e-49 2.17415e-49 2.19048e-49 2.20842e-49 2.22827e-49 2.24978e-49 2.27216e-49 2.29421e-49 2.3144e-49 2.33107e-49 2.34248e-49 2.34703e-49 2.34335e-49 2.3304e-49 2.30761e-49 2.27488e-49 2.23265e-49 2.18188e-49 2.12398e-49 2.06074e-49 1.99423e-49 1.92666e-49 1.86032e-49 1.79741e-49 1.74002e-49 1.68993e-49 1.6486e-49 1.61702e-49 1.59564e-49 1.58432e-49 1.58235e-49 1.58848e-49 1.60107e-49 1.61823e-49 1.63809e-49 1.65895e-49 1.6795e-49 1.69888e-49 1.71675e-49 1.73319e-49 1.7486e-49 1.76354e-49 1.7785e-49 1.79378e-49 1.80938e-49 1.82499e-49 1.84006e-49 1.85391e-49 1.86596e-49 1.87591e-49 1.88391e-49 1.89066e-49 1.89737e-49 1.90568e-49 1.91741e-49 1.93425e-49 1.95748e-49 1.98766e-49 2.02441e-49 2.06633e-49 2.11101e-49 2.15521e-49 2.19513e-49 2.2267e-49 2.24596e-49 2.24937e-49 2.23409e-49 2.19813e-49 2.14052e-49 2.06129e-49 1.9615e-49 1.84312e-49 1.70895e-49 1.56246e-49 1.4076e-49 1.24861e-49 1.08979e-49 9.35228e-50 7.88601e-50 6.5295e-50 5.30548e-50 4.22816e-50 3.30327e-50 2.5288e-50 1.89625e-50 1.39234e-50 1.00081e-50 7.04072e-51 4.84697e-51 3.26482e-51 2.15152e-51 1.38712e-51 8.74903e-52 5.39874e-52 3.25937e-52 1.92538e-52 1.11297e-52 6.29626e-53 3.48639e-53 1.88985e-53 1.00301e-53 5.21304e-54 2.65375e-54 1.32342e-54 6.46678e-55 3.09687e-55 1.45377e-55 6.69105e-56 3.02006e-56 1.33708e-56 5.80778e-57 2.47556e-57 1.03572e-57 4.25415e-58 1.71586e-58 6.79738e-59 2.64539e-59 1.01162e-59 3.80207e-60 1.40471e-60 5.10282e-61 1.82297e-61 6.40594e-62 2.21467e-62 7.53426e-63 2.5227e-63 8.315e-64 2.69831e-64 8.61746e-65 2.69177e-65 7.64404e-66 0 