# vtk DataFile Version 3.0
Gray-Scott Simulation Output
ASCII
DATASET STRUCTURED_POINTS
DIMENSIONS 256 256 1
SPACING 1.0 1.0 1.0
ORIGIN 0 0 0
POINT_DATA 65536
SCALARS u double
LOOKUP_TABLE default
0 0 0 0 0 0 0 0 0 0 0 0 0 0 0 0 0 0 0 0 0 0 0 0 0 0 0 0 0 0 0 0 0 0 0 0 0 0 0 0 0 0 0 0 0 0 0 0 0 0 0 0 0 0 0 0 0 0 0 0 0 0 0 0 0 0 0 0 0 0 0 0 0 0 0 0 0 0 0 0 0 0 0 0 0 0 0 0 0 0 0 0 0 0 0 0 0 0 0 0 0 0 0 0 0 0 0 0 0 0 0 0 0 0 0 0 0 0 0 0 0 0 0 0 0 0 0 0 0 0 0 0 0 0 0 0 0 0 0 0 0 0 0 0 0 0 0 0 0 0 0 0 0 0 0 0 0 0 0 0 0 0 0 0 0 0 0 0 0 0 0 0 0 0 0 0 0 0 0 0 0 0 0 0 0 0 0 0 0 0 0 0 0 0 0 0 0 0 0 0 0 0 0 0 0 0 0 0 0 0 0 0 0 0 0 0 0 0 0 0 0 0 0 0 0 0 0 0 0 0 0 0 0 0 0 0 0 0 0 0 0 0 0 0 0 0 0 0 0 0 0 0 0 0 0 0 
0 2.93014e-73 9.37667e-73 2.69365e-72 7.59378e-72 2.12163e-71 5.88113e-71 1.61761e-70 4.41465e-70 1.19538e-69 3.21132e-69 8.55868e-69 2.26284e-68 5.93474e-68 1.54394e-67 3.98395e-67 1.01961e-66 2.58799e-66 6.51448e-66 1.62615e-65 4.02515e-65 9.87914e-65 2.40407e-64 5.80018e-64 1.38732e-63 3.28949e-63 7.73161e-63 1.80126e-62 4.15928e-62 9.51857e-62 2.15878e-61 4.8518e-61 1.0805e-60 2.38423e-60 5.21247e-60 1.12897e-59 2.42234e-59 5.14842e-59 1.08385e-58 2.25988e-58 4.6666e-58 9.54285e-58 1.93237e-57 3.87438e-57 7.69106e-57 1.5115e-56 2.9406e-56 5.66289e-56 1.0794e-55 2.03625e-55 3.80153e-55 7.02306e-55 1.28381e-54 2.32195e-54 4.15475e-54 7.35435e-54 1.28771e-53 2.23013e-53 3.81987e-53 6.47052e-53 1.08385e-52 1.79517e-52 2.93978e-52 4.75954e-52 7.6177e-52 1.2052e-51 1.88469e-51 2.91298e-51 4.44959e-51 6.71676e-51 1.00191e-50 1.47673e-50 2.15056e-50 3.09426e-50 4.39837e-50 6.17643e-50 8.56792e-50 1.17405e-49 1.58914e-49 2.12463e-49 2.80571e-49 3.65963e-49 4.7148e-49 5.99958e-49 7.54078e-49 9.36183e-49 1.14807e-48 1.3908e-48 1.66446e-48 1.96804e-48 2.29927e-48 2.65459e-48 3.02916e-48 3.41698e-48 3.8111e-48 4.20393e-48 4.5876e-48 4.95434e-48 5.29697e-48 5.60925e-48 5.88623e-48 6.12456e-48 6.3226e-48 6.48045e-48 6.59992e-48 6.68424e-48 6.73785e-48 6.76599e-48 6.77436e-48 6.76868e-48 6.75441e-48 6.73641e-48 6.71878e-48 6.70471e-48 6.69642e-48 6.69526e-48 6.70176e-48 6.71578e-48 6.7367e-48 6.76354e-48 6.79514e-48 6.8303e-48 6.86782e-48 6.90658e-48 6.94559e-48 6.98394e-48 7.02079e-48 7.05535e-48 7.0868e-48 7.11435e-48 7.13711e-48 7.1542e-48 7.16468e-48 7.16767e-48 7.16235e-48 7.148e-48 7.12412e-48 7.09045e-48 7.04703e-48 6.9942e-48 6.93269e-48 6.86352e-48 6.78804e-48 6.70787e-48 6.62481e-48 6.5408e-48 6.4578e-48 6.37772e-48 6.30235e-48 6.23324e-48 6.17167e-48 6.11859e-48 6.07461e-48 6.03998e-48 6.01464e-48 5.9982e-48 5.99003e-48 5.98933e-48 5.99515e-48 6.0065e-48 6.0224e-48 6.04189e-48 6.06412e-48 6.08835e-48 6.11398e-48 6.14056e-48 6.16776e-48 6.1954e-48 6.22345e-48 6.25199e-48 6.2812e-48 6.31139e-48 6.34294e-48 6.37627e-48 6.41184e-48 6.4501e-48 6.4914e-48 6.53595e-48 6.58377e-48 6.63456e-48 6.68771e-48 6.74219e-48 6.79651e-48 6.84875e-48 6.89653e-48 6.93705e-48 6.96717e-48 6.9835e-48 6.98253e-48 6.96075e-48 6.91481e-48 6.84168e-48 6.73883e-48 6.60432e-48 6.43703e-48 6.23667e-48 6.00392e-48 5.74042e-48 5.44879e-48 5.13254e-48 4.796e-48 4.44411e-48 4.08231e-48 3.71625e-48 3.35161e-48 2.99387e-48 2.64808e-48 2.31871e-48 2.00948e-48 1.72328e-48 1.46214e-48 1.22717e-48 1.0187e-48 8.36279e-49 6.78847e-49 5.44833e-49 4.32303e-49 3.39088e-49 2.62912e-49 2.01492e-49 1.52629e-49 1.14271e-49 8.45557e-50 6.18376e-50 4.46954e-50 3.19282e-50 2.25419e-50 1.57295e-50 1.08483e-50 7.39501e-51 4.98264e-51 3.31848e-51 2.18472e-51 1.42182e-51 9.14768e-52 5.81852e-52 3.65909e-52 2.27519e-52 1.39884e-52 8.50456e-53 5.11323e-53 3.04037e-53 1.78801e-53 1.04006e-53 5.98435e-54 3.40625e-54 1.91807e-54 1.06858e-54 5.89011e-55 3.21206e-55 1.73225e-55 9.22194e-56 4.81166e-56 2.38945e-56 9.82081e-57 0 
0 9.37874e-73 3.00191e-72 8.62591e-72 2.43245e-71 6.79798e-71 1.88495e-70 5.18613e-70 1.41579e-69 3.83481e-69 1.03053e-68 2.74741e-68 7.26628e-68 1.90637e-67 4.96115e-67 1.28061e-66 3.27861e-66 8.32483e-66 2.09629e-65 5.23473e-65 1.29622e-64 3.1826e-64 7.74782e-64 1.87002e-63 4.47461e-63 1.06141e-62 2.49577e-62 5.81689e-62 1.34375e-61 3.07651e-61 6.98046e-61 1.56953e-60 3.49691e-60 7.71973e-60 1.68848e-59 3.65875e-59 7.85392e-59 1.67004e-58 3.51743e-58 7.33753e-58 1.5159e-57 3.10139e-57 6.28315e-57 1.26038e-56 2.5032e-56 4.92184e-56 9.58004e-56 1.84578e-55 3.51994e-55 6.64351e-55 1.24089e-54 2.29357e-54 4.19465e-54 7.59022e-54 1.35879e-53 2.40633e-53 4.2153e-53 7.30365e-53 1.25157e-52 2.12099e-52 3.55433e-52 5.88951e-52 9.64872e-52 1.56277e-51 2.50222e-51 3.9603e-51 6.19541e-51 9.57902e-51 1.4637e-50 2.21021e-50 3.2979e-50 4.86224e-50 7.0828e-50 1.01934e-49 1.44929e-49 2.0356e-49 2.82431e-49 3.87077e-49 5.24001e-49 7.00655e-49 9.25346e-49 1.20705e-48 1.55513e-48 1.97891e-48 2.4872e-48 3.08766e-48 3.78616e-48 4.58605e-48 5.48755e-48 6.48715e-48 7.57719e-48 8.74575e-48 9.97665e-48 1.12499e-47 1.25425e-47 1.38292e-47 1.50838e-47 1.62809e-47 1.73967e-47 1.84106e-47 1.93065e-47 2.00736e-47 2.07067e-47 2.12064e-47 2.1579e-47 2.18355e-47 2.19908e-47 2.20625e-47 2.20696e-47 2.20312e-47 2.19655e-47 2.18886e-47 2.18141e-47 2.17526e-47 2.17113e-47 2.16947e-47 2.17045e-47 2.17402e-47 2.17995e-47 2.18793e-47 2.19757e-47 2.20845e-47 2.22018e-47 2.23238e-47 2.24472e-47 2.2569e-47 2.26864e-47 2.27967e-47 2.28974e-47 2.29856e-47 2.30587e-47 2.31136e-47 2.31474e-47 2.31572e-47 2.31404e-47 2.30945e-47 2.3018e-47 2.291e-47 2.27707e-47 2.26011e-47 2.24035e-47 2.21812e-47 2.19387e-47 2.1681e-47 2.1414e-47 2.1144e-47 2.08772e-47 2.06198e-47 2.03776e-47 2.01555e-47 1.99577e-47 1.97872e-47 1.9646e-47 1.95349e-47 1.94536e-47 1.94009e-47 1.93748e-47 1.93726e-47 1.93914e-47 1.94279e-47 1.9479e-47 1.95415e-47 1.96128e-47 1.96905e-47 1.97727e-47 1.98578e-47 1.9945e-47 2.00336e-47 2.01235e-47 2.02149e-47 2.03086e-47 2.04055e-47 2.05069e-47 2.06141e-47 2.07287e-47 2.08522e-47 2.09856e-47 2.11299e-47 2.1285e-47 2.14502e-47 2.16235e-47 2.18016e-47 2.19799e-47 2.21522e-47 2.23108e-47 2.24468e-47 2.25501e-47 2.26096e-47 2.2614e-47 2.25518e-47 2.2412e-47 2.21847e-47 2.18614e-47 2.14357e-47 2.09035e-47 2.02637e-47 1.95182e-47 1.86721e-47 1.77335e-47 1.67138e-47 1.56266e-47 1.44882e-47 1.3316e-47 1.21284e-47 1.0944e-47 9.78072e-48 8.65517e-48 7.58205e-48 6.57369e-48 5.6397e-48 4.78684e-48 4.01897e-48 3.33727e-48 2.74045e-48 2.22512e-48 1.78626e-48 1.41761e-48 1.11213e-48 8.6241e-49 6.61015e-49 5.0076e-49 3.74934e-49 2.77445e-49 2.02905e-49 1.46655e-49 1.04759e-49 7.39577e-50 5.1603e-50 3.55858e-50 2.4255e-50 1.63404e-50 1.08811e-50 7.16229e-51 4.66035e-51 2.99774e-51 1.90633e-51 1.19855e-51 7.45056e-52 4.57957e-52 2.78348e-52 1.67304e-52 9.94504e-53 5.84678e-53 3.3999e-53 1.95561e-53 1.11275e-53 6.26377e-54 3.48841e-54 1.92215e-54 1.04783e-54 5.64885e-55 3.00618e-55 1.56797e-55 7.78408e-56 3.1986e-56 0 
0 2.69496e-72 8.62821e-72 2.4801e-71 6.99614e-71 1.9559e-70 5.42531e-70 1.49324e-69 4.07799e-69 1.10499e-68 2.97059e-68 7.92279e-68 2.09625e-67 5.50194e-67 1.43243e-66 3.69909e-66 9.47447e-66 2.40676e-65 6.06321e-65 1.51476e-64 3.75257e-64 9.218e-64 2.24513e-63 5.42148e-63 1.2979e-62 3.08025e-62 7.24647e-62 1.6898e-61 3.90561e-61 8.94658e-61 2.03102e-60 4.56913e-60 1.01856e-59 2.24979e-59 4.92353e-59 1.06748e-58 2.29276e-58 4.87807e-58 1.02801e-57 2.14572e-57 4.43554e-57 9.08003e-57 1.84062e-56 3.6944e-56 7.34169e-56 1.4444e-55 2.8131e-55 5.42323e-55 1.03483e-54 1.9543e-54 3.65245e-54 6.75489e-54 1.23611e-53 2.23804e-53 4.00882e-53 7.10343e-53 1.24505e-52 2.15845e-52 3.7008e-52 6.27501e-52 1.05212e-51 1.74426e-51 2.85906e-51 4.63303e-51 7.42172e-51 1.17519e-50 1.83927e-50 2.84502e-50 4.34908e-50 6.56978e-50 9.80659e-50 1.44634e-49 2.10758e-49 3.03412e-49 4.31511e-49 6.06236e-49 8.41321e-49 1.15328e-48 1.56151e-48 2.08823e-48 2.7582e-48 3.59817e-48 4.63597e-48 5.89934e-48 7.41438e-48 9.20374e-48 1.12846e-47 1.36666e-47 1.635e-47 1.93236e-47 2.25642e-47 2.60354e-47 2.96884e-47 3.34629e-47 3.72895e-47 4.10926e-47 4.4794e-47 4.83173e-47 5.15917e-47 5.45563e-47 5.71637e-47 5.93821e-47 6.11969e-47 6.26113e-47 6.36448e-47 6.43316e-47 6.47172e-47 6.48551e-47 6.48027e-47 6.4618e-47 6.43554e-47 6.40635e-47 6.37831e-47 6.35456e-47 6.33729e-47 6.32779e-47 6.32656e-47 6.33341e-47 6.34768e-47 6.36836e-47 6.39428e-47 6.42417e-47 6.45684e-47 6.49115e-47 6.52608e-47 6.56071e-47 6.59422e-47 6.62581e-47 6.65469e-47 6.68008e-47 6.70114e-47 6.71701e-47 6.72682e-47 6.72972e-47 6.72493e-47 6.71178e-47 6.68978e-47 6.65868e-47 6.61851e-47 6.56959e-47 6.51258e-47 6.44843e-47 6.3784e-47 6.30399e-47 6.2269e-47 6.14891e-47 6.07186e-47 5.99754e-47 5.9276e-47 5.86348e-47 5.80638e-47 5.75719e-47 5.71646e-47 5.68442e-47 5.661e-47 5.64584e-47 5.63835e-47 5.63777e-47 5.64321e-47 5.65377e-47 5.6685e-47 5.68653e-47 5.70707e-47 5.72944e-47 5.75309e-47 5.77759e-47 5.80266e-47 5.82814e-47 5.85401e-47 5.88034e-47 5.90733e-47 5.93527e-47 5.96452e-47 5.99552e-47 6.02871e-47 6.06453e-47 6.10334e-47 6.14539e-47 6.19071e-47 6.2391e-47 6.29003e-47 6.34257e-47 6.39539e-47 6.44673e-47 6.49439e-47 6.53577e-47 6.56794e-47 6.5877e-47 6.5917e-47 6.57658e-47 6.5391e-47 6.47629e-47 6.38562e-47 6.2651e-47 6.11347e-47 5.9303e-47 5.71601e-47 5.472e-47 5.20058e-47 4.90495e-47 4.58911e-47 4.2577e-47 3.91585e-47 3.56895e-47 3.22246e-47 2.88169e-47 2.55155e-47 2.23643e-47 1.94001e-47 1.66518e-47 1.414e-47 1.18768e-47 9.86603e-48 8.10444e-48 6.5825e-48 5.28569e-48 4.19582e-48 3.29235e-48 2.55353e-48 1.95748e-48 1.48307e-48 1.1105e-48 8.21792e-49 6.01011e-49 4.34391e-49 3.10282e-49 2.19036e-49 1.52815e-49 1.05369e-49 7.18082e-50 4.83682e-50 3.22023e-50 2.1192e-50 1.3786e-50 8.86546e-51 5.63621e-51 3.54257e-51 2.2015e-51 1.35274e-51 8.21921e-52 4.9385e-52 2.93452e-52 1.72458e-52 1.00245e-52 5.76376e-53 3.27825e-53 1.84459e-53 1.02685e-53 5.65559e-54 3.0817e-54 1.66061e-54 8.83346e-55 4.60542e-55 2.28547e-55 9.3888e-56 0 
0 7.5996e-72 2.43378e-71 6.99808e-71 1.97482e-70 5.52305e-70 1.53258e-69 4.21983e-69 1.15289e-68 3.12517e-68 8.405e-68 2.24262e-67 5.93618e-67 1.55872e-66 4.05994e-66 1.04891e-65 2.6878e-65 6.83088e-65 1.72169e-64 4.30332e-64 1.0666e-63 2.62136e-63 6.3878e-63 1.5433e-62 3.69659e-62 8.7776e-62 2.06609e-61 4.82053e-61 1.11477e-60 2.55504e-60 5.80364e-60 1.30637e-59 2.91387e-59 6.43993e-59 1.41017e-58 3.05923e-58 6.57465e-58 1.39967e-57 2.95147e-57 6.16426e-57 1.27504e-56 2.61177e-56 5.29764e-56 1.06398e-55 2.11573e-55 4.1651e-55 8.11703e-55 1.56583e-54 2.98972e-54 5.64967e-54 1.05655e-53 1.95521e-53 3.58017e-53 6.48608e-53 1.16251e-52 2.06115e-52 3.61485e-52 6.27047e-52 1.07574e-51 1.82505e-51 3.06174e-51 5.07873e-51 8.32913e-51 1.35042e-50 2.16436e-50 3.42885e-50 5.36899e-50 8.30866e-50 1.27067e-49 1.9203e-49 2.86753e-49 4.23082e-49 6.16723e-49 8.88138e-49 1.26349e-48 1.77557e-48 2.46471e-48 3.37934e-48 4.57637e-48 6.12098e-48 8.08575e-48 1.0549e-47 1.35922e-47 1.72965e-47 2.17378e-47 2.69821e-47 3.30787e-47 4.00549e-47 4.79098e-47 5.66093e-47 6.6083e-47 7.62225e-47 8.68823e-47 9.78837e-47 1.09021e-46 1.20072e-46 1.30805e-46 1.40995e-46 1.50437e-46 1.58951e-46 1.66401e-46 1.72695e-46 1.77795e-46 1.81711e-46 1.84505e-46 1.86281e-46 1.87175e-46 1.87348e-46 1.8697e-46 1.86214e-46 1.85241e-46 1.84194e-46 1.83195e-46 1.82334e-46 1.81677e-46 1.8126e-46 1.81099e-46 1.81185e-46 1.815e-46 1.82013e-46 1.82687e-46 1.83487e-46 1.84376e-46 1.85319e-46 1.86287e-46 1.87252e-46 1.8819e-46 1.89077e-46 1.8989e-46 1.90606e-46 1.91202e-46 1.91652e-46 1.91931e-46 1.92015e-46 1.91882e-46 1.91512e-46 1.90891e-46 1.90012e-46 1.88876e-46 1.87491e-46 1.85877e-46 1.8406e-46 1.82075e-46 1.79967e-46 1.77781e-46 1.75571e-46 1.73387e-46 1.7128e-46 1.69298e-46 1.67482e-46 1.65864e-46 1.64471e-46 1.63318e-46 1.62412e-46 1.6175e-46 1.61322e-46 1.61111e-46 1.61095e-46 1.61251e-46 1.6155e-46 1.61967e-46 1.62477e-46 1.63058e-46 1.6369e-46 1.64358e-46 1.65049e-46 1.65757e-46 1.66476e-46 1.67206e-46 1.6795e-46 1.68713e-46 1.69504e-46 1.70333e-46 1.71212e-46 1.72156e-46 1.73177e-46 1.74285e-46 1.75489e-46 1.76789e-46 1.78182e-46 1.79653e-46 1.81176e-46 1.82715e-46 1.84219e-46 1.85627e-46 1.86865e-46 1.8785e-46 1.8849e-46 1.88688e-46 1.88349e-46 1.87377e-46 1.85686e-46 1.832e-46 1.79861e-46 1.75629e-46 1.70488e-46 1.64448e-46 1.57544e-46 1.49842e-46 1.4143e-46 1.32421e-46 1.22948e-46 1.13157e-46 1.03205e-46 9.3248e-47 8.34409e-47 7.39271e-47 6.48348e-47 5.62724e-47 4.83257e-47 4.10559e-47 3.44997e-47 2.86704e-47 2.35599e-47 1.91418e-47 1.53752e-47 1.22081e-47 9.58141e-48 7.43262e-48 5.69853e-48 4.31793e-48 3.23345e-48 2.39292e-48 1.75006e-48 1.26486e-48 9.03439e-49 6.37713e-49 4.44865e-49 3.06705e-49 2.08984e-49 1.40741e-49 9.36822e-50 6.16374e-50 4.00868e-50 2.5772e-50 1.63798e-50 1.02921e-50 6.39388e-51 3.92746e-51 2.38546e-51 1.43277e-51 8.5104e-52 4.99946e-52 2.90486e-52 1.66949e-52 9.49145e-53 5.33825e-53 2.97036e-53 1.63524e-53 8.90621e-54 4.79696e-54 2.55051e-54 1.32914e-54 6.59333e-55 2.70779e-55 0 
0 2.12385e-71 6.80359e-71 1.957e-70 5.5246e-70 1.54568e-69 4.29075e-69 1.1819e-68 3.23035e-68 8.76027e-68 2.35703e-67 6.29175e-67 1.66615e-66 4.37694e-66 1.14056e-65 2.94807e-65 7.55792e-65 1.92172e-64 4.84596e-64 1.21184e-63 3.00514e-63 7.38943e-63 1.80161e-62 4.35502e-62 1.04369e-61 2.47961e-61 5.83978e-61 1.36328e-60 3.15445e-60 7.23408e-60 1.64414e-59 3.70305e-59 8.26458e-59 1.82765e-58 4.00448e-58 8.69265e-58 1.86931e-57 3.98203e-57 8.40213e-57 1.75593e-56 3.63434e-56 7.44929e-56 1.51196e-55 3.0386e-55 6.04616e-55 1.19104e-54 2.32263e-54 4.4834e-54 8.56595e-54 1.61976e-53 3.03107e-53 5.6128e-53 1.02841e-52 1.86431e-52 3.34354e-52 5.93185e-52 1.04097e-51 1.8068e-51 3.10154e-51 5.26502e-51 8.83781e-51 1.46682e-50 2.40692e-50 3.90448e-50 6.2611e-50 9.92406e-50 1.5547e-49 2.40707e-49 3.68288e-49 5.56813e-49 8.31815e-49 1.22775e-48 1.79033e-48 2.5791e-48 3.67022e-48 5.15921e-48 7.1634e-48 9.82384e-48 1.33062e-47 1.78001e-47 2.35166e-47 3.06834e-47 3.95371e-47 5.03126e-47 6.32299e-47 7.84786e-47 9.62e-47 1.1647e-46 1.39282e-46 1.64531e-46 1.92008e-46 2.2139e-46 2.52248e-46 2.84057e-46 3.16213e-46 3.48061e-46 3.78929e-46 4.08161e-46 4.35156e-46 4.59399e-46 4.80494e-46 4.98184e-46 5.12363e-46 5.23074e-46 5.30507e-46 5.34972e-46 5.36878e-46 5.367e-46 5.34943e-46 5.32114e-46 5.28688e-46 5.25086e-46 5.21659e-46 5.18677e-46 5.16325e-46 5.14711e-46 5.13874e-46 5.13793e-46 5.14407e-46 5.15626e-46 5.17342e-46 5.19446e-46 5.21829e-46 5.24392e-46 5.27044e-46 5.29706e-46 5.32303e-46 5.34769e-46 5.37037e-46 5.3904e-46 5.40709e-46 5.41973e-46 5.42761e-46 5.43004e-46 5.42636e-46 5.41604e-46 5.39869e-46 5.37408e-46 5.34223e-46 5.30339e-46 5.25808e-46 5.20706e-46 5.15135e-46 5.09212e-46 5.03075e-46 4.96866e-46 4.90731e-46 4.84815e-46 4.79249e-46 4.74148e-46 4.69607e-46 4.65698e-46 4.62464e-46 4.59923e-46 4.58069e-46 4.56871e-46 4.56284e-46 4.56244e-46 4.56682e-46 4.57523e-46 4.58693e-46 4.60123e-46 4.6175e-46 4.63519e-46 4.65388e-46 4.67322e-46 4.69301e-46 4.71313e-46 4.73356e-46 4.75437e-46 4.77574e-46 4.79791e-46 4.82119e-46 4.84593e-46 4.87253e-46 4.90135e-46 4.93273e-46 4.96689e-46 5.00391e-46 5.04367e-46 5.0858e-46 5.12959e-46 5.17403e-46 5.21775e-46 5.25901e-46 5.29574e-46 5.32558e-46 5.34594e-46 5.35407e-46 5.34721e-46 5.32264e-46 5.27783e-46 5.21058e-46 5.11912e-46 5.00226e-46 4.85944e-46 4.69084e-46 4.49739e-46 4.28083e-46 4.04364e-46 3.78898e-46 3.52059e-46 3.24264e-46 2.95957e-46 2.6759e-46 2.39607e-46 2.12422e-46 1.86408e-46 1.61882e-46 1.39095e-46 1.18228e-46 9.93933e-47 8.26333e-47 6.79293e-47 5.52094e-47 4.43587e-47 3.52303e-47 2.76564e-47 2.14579e-47 1.6454e-47 1.2469e-47 9.33808e-48 6.91094e-48 5.05439e-48 3.653e-48 2.60905e-48 1.84151e-48 1.28449e-48 8.8545e-49 6.03234e-49 4.06173e-49 2.70307e-49 1.77805e-49 1.15608e-49 7.43046e-50 4.72114e-50 2.96556e-50 1.84171e-50 1.13088e-50 6.86623e-51 4.12245e-51 2.4477e-51 1.43732e-51 8.3478e-52 4.79561e-52 2.72521e-52 1.53203e-52 8.52076e-53 4.68864e-53 2.55241e-53 1.37409e-53 7.30246e-54 3.80376e-54 1.88612e-54 7.74376e-55 0 
0 5.88894e-71 1.88704e-70 5.42986e-70 1.53343e-69 4.29195e-69 1.19191e-68 3.28449e-68 8.98084e-68 2.43652e-67 6.55853e-67 1.75147e-66 4.64025e-66 1.21954e-65 3.17942e-65 8.22188e-65 2.10885e-64 5.36473e-64 1.35348e-63 3.38641e-63 8.40197e-63 2.06707e-62 5.04239e-62 1.21955e-61 2.92429e-61 6.95142e-61 1.63806e-60 3.8262e-60 8.85843e-60 2.03269e-59 4.62258e-59 1.04176e-58 2.32644e-58 5.1479e-58 1.12863e-57 2.45149e-57 5.27515e-57 1.12443e-56 2.37409e-56 4.96474e-56 1.02825e-55 2.10897e-55 4.28333e-55 8.61391e-55 1.71512e-54 3.38086e-54 6.59734e-54 1.27434e-53 2.43635e-53 4.61001e-53 8.63244e-53 1.59956e-52 2.93272e-52 5.31993e-52 9.5471e-52 1.69485e-51 2.97612e-51 5.16885e-51 8.8782e-51 1.50803e-50 2.53285e-50 4.20622e-50 6.9059e-50 1.12089e-49 1.79838e-49 2.85196e-49 4.4701e-49 6.92419e-49 1.05991e-48 1.60317e-48 2.39595e-48 3.53779e-48 5.16078e-48 7.43703e-48 1.05867e-47 1.4886e-47 2.0674e-47 2.83587e-47 3.84187e-47 5.14021e-47 6.79186e-47 8.86252e-47 1.14204e-46 1.45331e-46 1.82639e-46 2.26669e-46 2.77823e-46 3.36308e-46 4.02095e-46 4.74867e-46 5.54001e-46 6.38548e-46 7.27251e-46 8.18572e-46 9.10753e-46 1.00189e-45 1.09003e-45 1.17327e-45 1.24988e-45 1.31837e-45 1.37763e-45 1.42693e-45 1.46598e-45 1.49495e-45 1.5144e-45 1.52526e-45 1.52875e-45 1.52626e-45 1.51928e-45 1.50929e-45 1.49767e-45 1.48565e-45 1.47426e-45 1.46426e-45 1.4562e-45 1.45038e-45 1.44691e-45 1.44572e-45 1.44663e-45 1.44937e-45 1.45362e-45 1.45906e-45 1.46537e-45 1.47225e-45 1.47945e-45 1.48671e-45 1.49385e-45 1.50064e-45 1.50691e-45 1.51247e-45 1.5171e-45 1.52063e-45 1.52283e-45 1.52353e-45 1.52252e-45 1.51967e-45 1.51486e-45 1.50802e-45 1.49916e-45 1.48836e-45 1.47574e-45 1.46154e-45 1.44602e-45 1.42952e-45 1.41241e-45 1.39511e-45 1.37802e-45 1.36154e-45 1.34603e-45 1.33182e-45 1.31918e-45 1.30829e-45 1.29929e-45 1.29223e-45 1.28708e-45 1.28375e-45 1.28213e-45 1.28203e-45 1.28325e-45 1.2856e-45 1.28886e-45 1.29283e-45 1.29735e-45 1.30226e-45 1.30745e-45 1.31282e-45 1.31831e-45 1.32389e-45 1.32956e-45 1.33534e-45 1.34127e-45 1.34744e-45 1.35393e-45 1.36083e-45 1.36827e-45 1.37635e-45 1.38516e-45 1.39479e-45 1.40524e-45 1.41651e-45 1.42849e-45 1.44099e-45 1.45373e-45 1.46635e-45 1.47835e-45 1.48916e-45 1.49811e-45 1.50449e-45 1.50752e-45 1.5064e-45 1.50036e-45 1.48868e-45 1.47071e-45 1.44593e-45 1.41398e-45 1.37466e-45 1.32801e-45 1.27426e-45 1.21388e-45 1.14754e-45 1.07612e-45 1.00068e-45 9.22374e-46 8.42476e-46 7.62269e-46 6.8302e-46 6.05921e-46 5.32045e-46 4.62309e-46 3.97447e-46 3.37992e-46 2.84278e-46 2.36442e-46 1.94443e-46 1.58086e-46 1.27055e-46 1.00935e-46 7.92533e-47 6.15021e-47 4.71671e-47 3.57477e-47 2.67736e-47 1.98155e-47 1.44924e-47 1.0474e-47 7.48035e-48 5.27931e-48 3.68201e-48 2.5378e-48 1.72865e-48 1.16372e-48 7.74289e-49 5.09196e-49 3.30991e-49 2.12677e-49 1.35089e-49 8.48283e-50 5.26632e-50 3.23256e-50 1.96194e-50 1.17748e-50 6.98847e-51 4.10201e-51 2.38138e-51 1.36744e-51 7.76726e-52 4.36452e-52 2.42628e-52 1.33445e-52 7.26098e-53 3.90703e-53 2.07534e-53 1.08051e-53 5.35557e-54 2.19815e-54 0 
0 1.62022e-70 5.19334e-70 1.49491e-69 4.22338e-69 1.18256e-68 3.28541e-68 9.05724e-68 2.47759e-67 6.72467e-67 1.81092e-66 4.83828e-66 1.28241e-65 3.37198e-65 8.79514e-65 2.2755e-64 5.83936e-64 1.48622e-63 3.75155e-63 9.39121e-63 2.33127e-62 5.7385e-62 1.4006e-61 3.38937e-61 8.13171e-61 1.93411e-60 4.56025e-60 1.06581e-59 2.46902e-59 5.66891e-59 1.28996e-58 2.90887e-58 6.50008e-58 1.43923e-57 3.15738e-57 6.86251e-57 1.47763e-56 3.15173e-56 6.65883e-56 1.39342e-55 2.88783e-55 5.927e-55 1.20459e-54 2.42409e-54 4.82986e-54 9.52714e-54 1.86036e-53 3.5959e-53 6.8795e-53 1.3026e-52 2.44081e-52 4.52578e-52 8.30332e-52 1.50721e-51 2.70659e-51 4.808e-51 8.44817e-51 1.46818e-50 2.52337e-50 4.28875e-50 7.20762e-50 1.19765e-49 1.96747e-49 3.19516e-49 5.12918e-49 8.13841e-49 1.27624e-48 1.97787e-48 3.02901e-48 4.58361e-48 6.85315e-48 1.01232e-47 1.47729e-47 2.12962e-47 3.03252e-47 4.26527e-47 5.92528e-47 8.12963e-47 1.10158e-46 1.47409e-46 1.948e-46 2.54214e-46 3.27602e-46 4.169e-46 5.23909e-46 6.50168e-46 7.96805e-46 9.64392e-46 1.1528e-45 1.36109e-45 1.58742e-45 1.82902e-45 2.08222e-45 2.34257e-45 2.60497e-45 2.86392e-45 3.11378e-45 3.34911e-45 3.56493e-45 3.75701e-45 3.92218e-45 4.05839e-45 4.16493e-45 4.24232e-45 4.29229e-45 4.3176e-45 4.32181e-45 4.30899e-45 4.28349e-45 4.2496e-45 4.21134e-45 4.17225e-45 4.13528e-45 4.10265e-45 4.07591e-45 4.05593e-45 4.04297e-45 4.03685e-45 4.037e-45 4.04264e-45 4.05283e-45 4.06662e-45 4.08309e-45 4.10136e-45 4.12068e-45 4.14034e-45 4.15975e-45 4.17832e-45 4.19551e-45 4.21078e-45 4.22356e-45 4.2333e-45 4.23943e-45 4.24138e-45 4.23867e-45 4.23085e-45 4.2176e-45 4.19877e-45 4.17434e-45 4.14451e-45 4.10967e-45 4.07042e-45 4.02753e-45 3.98192e-45 3.93464e-45 3.88681e-45 3.83956e-45 3.79399e-45 3.75113e-45 3.71186e-45 3.67693e-45 3.64688e-45 3.62204e-45 3.60254e-45 3.58834e-45 3.5792e-45 3.57474e-45 3.57448e-45 3.57789e-45 3.58438e-45 3.59338e-45 3.60435e-45 3.6168e-45 3.63034e-45 3.64461e-45 3.65939e-45 3.6745e-45 3.68985e-45 3.70546e-45 3.72137e-45 3.73774e-45 3.75476e-45 3.77269e-45 3.79181e-45 3.81245e-45 3.83492e-45 3.8595e-45 3.88641e-45 3.91573e-45 3.94742e-45 3.98122e-45 4.01664e-45 4.05294e-45 4.08907e-45 4.12371e-45 4.15528e-45 4.18193e-45 4.20164e-45 4.21223e-45 4.21148e-45 4.19718e-45 4.16726e-45 4.11985e-45 4.05344e-45 3.96693e-45 3.85971e-45 3.73176e-45 3.58368e-45 3.41668e-45 3.23263e-45 3.03392e-45 2.82348e-45 2.60458e-45 2.38077e-45 2.15569e-45 1.93292e-45 1.71587e-45 1.50761e-45 1.31078e-45 1.1275e-45 9.59321e-46 8.07242e-46 6.71691e-46 5.52592e-46 4.49425e-46 3.61315e-46 2.87112e-46 2.25488e-46 1.75016e-46 1.34243e-46 1.01753e-46 7.62149e-47 5.64101e-47 4.12568e-47 2.98165e-47 2.12933e-47 1.50266e-47 1.0479e-47 7.22153e-48 4.91819e-48 3.31027e-48 2.20201e-48 1.44776e-48 9.40833e-49 6.04354e-49 3.83758e-49 2.40899e-49 1.49503e-49 9.17343e-50 5.56553e-50 3.3389e-50 1.98085e-50 1.1622e-50 6.74409e-51 3.87087e-51 2.1977e-51 1.23433e-51 6.8585e-52 3.77032e-52 2.05048e-52 1.10279e-52 5.85488e-53 3.04685e-53 1.50953e-53 6.19387e-54 0 
0 4.42301e-70 1.41815e-69 4.08371e-69 1.15418e-68 3.23306e-68 8.98587e-68 2.47828e-67 6.78223e-67 1.84164e-66 4.96168e-66 1.32624e-65 3.5169e-65 9.25176e-65 2.41431e-64 6.24943e-64 1.60452e-63 4.0859e-63 1.0319e-62 2.58452e-62 6.41923e-62 1.58098e-61 3.86086e-61 9.34827e-61 2.2441e-60 5.34064e-60 1.25996e-59 2.94649e-59 6.82988e-59 1.56911e-58 3.57271e-58 8.06157e-58 1.80256e-57 3.99372e-57 8.76711e-57 1.90676e-56 4.10833e-56 8.76871e-56 1.85385e-55 3.88198e-55 8.05076e-55 1.65347e-54 3.36276e-54 6.77181e-54 1.35018e-53 2.66512e-53 5.20779e-53 1.00731e-52 1.92846e-52 3.65396e-52 6.8515e-52 1.27128e-51 2.33396e-51 4.23943e-51 7.61811e-51 1.35418e-50 2.38099e-50 4.14051e-50 7.12084e-50 1.21102e-49 2.03647e-49 3.38592e-49 5.56556e-49 9.04358e-49 1.45257e-48 2.30601e-48 3.6181e-48 5.60998e-48 8.59549e-48 1.3013e-47 1.94647e-47 2.87643e-47 4.19919e-47 6.0556e-47 8.62585e-47 1.2136e-46 1.68638e-46 2.3143e-46 3.13655e-46 4.19794e-46 5.5483e-46 7.24122e-46 9.33224e-46 1.18762e-45 1.49243e-45 1.85197e-45 2.26941e-45 2.74629e-45 3.28214e-45 3.87417e-45 4.51698e-45 5.20255e-45 5.92028e-45 6.65731e-45 7.39898e-45 8.12953e-45 8.83283e-45 9.49331e-45 1.00968e-44 1.06314e-44 1.1088e-44 1.14612e-44 1.1749e-44 1.19532e-44 1.20789e-44 1.21343e-44 1.21297e-44 1.20771e-44 1.19888e-44 1.18774e-44 1.17544e-44 1.163e-44 1.15125e-44 1.14084e-44 1.1322e-44 1.12557e-44 1.12104e-44 1.11853e-44 1.11788e-44 1.11886e-44 1.1212e-44 1.12462e-44 1.12885e-44 1.13364e-44 1.13877e-44 1.14404e-44 1.14927e-44 1.1543e-44 1.15898e-44 1.16314e-44 1.16663e-44 1.1693e-44 1.17099e-44 1.17154e-44 1.17081e-44 1.16869e-44 1.16507e-44 1.15992e-44 1.15324e-44 1.14507e-44 1.13552e-44 1.12477e-44 1.11301e-44 1.1005e-44 1.08753e-44 1.07442e-44 1.06146e-44 1.04896e-44 1.03721e-44 1.02644e-44 1.01687e-44 1.00864e-44 1.00183e-44 9.96498e-45 9.92615e-45 9.90118e-45 9.88904e-45 9.88842e-45 9.89781e-45 9.91561e-45 9.94027e-45 9.97029e-45 1.00043e-44 1.00413e-44 1.00803e-44 1.01207e-44 1.01619e-44 1.02038e-44 1.02464e-44 1.02899e-44 1.03347e-44 1.03813e-44 1.04304e-44 1.0483e-44 1.05398e-44 1.06019e-44 1.06699e-44 1.07445e-44 1.08262e-44 1.09146e-44 1.10093e-44 1.1109e-44 1.12116e-44 1.13143e-44 1.14136e-44 1.15051e-44 1.15837e-44 1.16437e-44 1.16793e-44 1.1684e-44 1.16518e-44 1.15767e-44 1.14534e-44 1.12775e-44 1.10456e-44 1.07559e-44 1.04081e-44 1.00036e-44 9.54562e-45 9.03908e-45 8.49059e-45 7.90817e-45 7.30092e-45 6.67874e-45 6.05183e-45 5.43032e-45 4.82381e-45 4.24105e-45 3.68956e-45 3.17543e-45 2.70319e-45 2.27574e-45 1.89442e-45 1.55912e-45 1.26848e-45 1.02011e-45 8.10827e-46 6.36941e-46 4.94463e-46 3.79326e-46 2.87553e-46 2.15398e-46 1.59432e-46 1.16605e-46 8.4269e-47 6.01768e-47 4.24628e-47 2.96084e-47 2.04015e-47 1.38919e-47 9.34832e-48 6.21718e-48 4.08659e-48 2.65497e-48 1.70495e-48 1.08228e-48 6.79161e-49 4.21343e-49 2.58438e-49 1.56734e-49 9.39904e-50 5.57379e-50 3.26883e-50 1.89602e-50 1.08775e-50 6.17283e-51 3.4653e-51 1.92454e-51 1.05745e-51 5.74803e-52 3.08982e-52 1.63961e-52 8.52829e-53 4.22345e-53 1.73241e-53 0 
0 1.19798e-69 3.8423e-69 1.10685e-68 3.12955e-68 8.77008e-68 2.43856e-67 6.72842e-67 1.84216e-66 5.00443e-66 1.34889e-65 3.60722e-65 9.57014e-65 2.5188e-64 6.57621e-64 1.70311e-63 4.37492e-63 1.11465e-62 2.81656e-62 7.05819e-62 1.75402e-61 4.32235e-61 1.05614e-60 2.5587e-60 6.14588e-60 1.4635e-59 3.45473e-59 8.08402e-59 1.87501e-58 4.31037e-58 9.8205e-58 2.21734e-57 4.96115e-57 1.0999e-56 2.41613e-56 5.25834e-56 1.13373e-55 2.42145e-55 5.12285e-55 1.07346e-54 2.22778e-54 4.5786e-54 9.31829e-54 1.8778e-53 3.74662e-53 7.40071e-53 1.44715e-52 2.80111e-52 5.36641e-52 1.01752e-51 1.90927e-51 3.54506e-51 6.51294e-51 1.18383e-50 2.12875e-50 3.78656e-50 6.66215e-50 1.1593e-49 1.99505e-49 3.39508e-49 5.71278e-49 9.50408e-49 1.56315e-48 2.54147e-48 4.08437e-48 6.48764e-48 1.01844e-47 1.57993e-47 2.42191e-47 3.6683e-47 5.48942e-47 8.11547e-47 1.18521e-46 1.7098e-46 2.43632e-46 3.42879e-46 4.76584e-46 6.542e-46 8.86817e-46 1.18712e-45 1.5692e-45 2.04821e-45 2.63982e-45 3.35953e-45 4.22166e-45 5.23837e-45 6.4184e-45 7.76591e-45 9.27928e-45 1.09502e-44 1.27632e-44 1.46949e-44 1.67151e-44 1.87868e-44 2.08684e-44 2.29147e-44 2.48801e-44 2.67203e-44 2.83953e-44 2.98717e-44 3.11242e-44 3.21376e-44 3.29072e-44 3.34386e-44 3.37471e-44 3.38566e-44 3.37969e-44 3.36022e-44 3.33087e-44 3.29516e-44 3.25642e-44 3.21753e-44 3.18089e-44 3.1483e-44 3.12099e-44 3.09964e-44 3.08444e-44 3.0752e-44 3.07143e-44 3.07246e-44 3.07751e-44 3.08576e-44 3.09645e-44 3.10886e-44 3.12234e-44 3.13631e-44 3.15028e-44 3.16379e-44 3.17638e-44 3.18763e-44 3.19711e-44 3.20437e-44 3.20898e-44 3.21051e-44 3.20857e-44 3.20283e-44 3.19305e-44 3.17909e-44 3.16094e-44 3.13875e-44 3.11281e-44 3.08356e-44 3.05158e-44 3.01756e-44 2.98229e-44 2.9466e-44 2.91134e-44 2.87735e-44 2.84538e-44 2.8161e-44 2.79008e-44 2.7677e-44 2.74922e-44 2.73474e-44 2.7242e-44 2.71744e-44 2.71417e-44 2.71402e-44 2.71659e-44 2.72143e-44 2.72813e-44 2.73628e-44 2.74552e-44 2.75554e-44 2.76611e-44 2.77703e-44 2.78819e-44 2.79954e-44 2.81108e-44 2.82287e-44 2.83501e-44 2.84767e-44 2.86105e-44 2.87537e-44 2.8909e-44 2.90789e-44 2.92658e-44 2.94714e-44 2.96969e-44 2.99421e-44 3.02056e-44 3.04839e-44 3.07717e-44 3.10617e-44 3.13441e-44 3.1607e-44 3.18366e-44 3.20175e-44 3.2133e-44 3.21658e-44 3.20984e-44 3.19143e-44 3.15984e-44 3.11378e-44 3.05229e-44 2.97478e-44 2.8811e-44 2.77156e-44 2.647e-44 2.50873e-44 2.35853e-44 2.1986e-44 2.03145e-44 1.85981e-44 1.68652e-44 1.51442e-44 1.34621e-44 1.18435e-44 1.03097e-44 8.87811e-45 7.56175e-45 6.3691e-45 5.30423e-45 4.36715e-45 3.55432e-45 2.85925e-45 2.27327e-45 1.78616e-45 1.38687e-45 1.06409e-45 8.06742e-46 6.04353e-46 4.47345e-46 3.27179e-46 2.36441e-46 1.68833e-46 1.19124e-46 8.30524e-47 5.72181e-47 3.89545e-47 2.62083e-47 1.74261e-47 1.14514e-47 7.43764e-48 4.77482e-48 3.03003e-48 1.90078e-48 1.1788e-48 7.22763e-49 4.38159e-49 2.62649e-49 1.55689e-49 9.1266e-50 5.29129e-50 3.03422e-50 1.72106e-50 9.65697e-51 5.36057e-51 2.94391e-51 1.59942e-51 8.59315e-52 4.55761e-52 2.36943e-52 1.17289e-52 4.80954e-53 0 