# vtk DataFile Version 3.0
Gray-Scott Simulation Output
ASCII
DATASET STRUCTURED_POINTS
DIMENSIONS 256 256 1
SPACING 1.0 1.0 1.0
ORIGIN 0 0 0
POINT_DATA 65536
SCALARS u double
LOOKUP_TABLE default
0 0 0 0 0 0 0 0 0 0 0 0 0 0 0 0 0 0 0 0 0 0 0 0 0 0 0 0 0 0 0 0 0 0 0 0 0 0 0 0 0 0 0 0 0 0 0 0 0 0 0 0 0 0 0 0 0 0 0 0 0 0 0 0 0 0 0 0 0 0 0 0 0 0 0 0 0 0 0 0 0 0 0 0 0 0 0 0 0 0 0 0 0 0 0 0 0 0 0 0 0 0 0 0 0 0 0 0 0 0 0 0 0 0 0 0 0 0 0 0 0 0 0 0 0 0 0 0 0 0 0 0 0 0 0 0 0 0 0 0 0 0 0 0 0 0 0 0 0 0 0 0 0 0 0 0 0 0 0 0 0 0 0 0 0 0 0 0 0 0 0 0 0 0 0 0 0 0 0 0 0 0 0 0 0 0 0 0 0 0 0 0 0 0 0 0 0 0 0 0 0 0 0 0 0 0 0 0 0 0 0 0 0 0 0 0 0 0 0 0 0 0 0 0 0 0 0 0 0 0 0 0 0 0 0 0 0 0 0 0 0 0 0 0 0 0 0 0 0 0 0 0 0 0 0 0 
0 2.03868e-130 1.93109e-129 1.79096e-128 1.64372e-127 1.49292e-126 1.34175e-125 1.19313e-124 1.04965e-123 9.13456e-123 7.86281e-122 6.69369e-121 5.63511e-120 4.69072e-119 3.86034e-118 3.14059e-117 2.52547e-116 2.00708e-115 1.57625e-114 1.22312e-113 9.37635e-113 7.10013e-112 5.31013e-111 3.92183e-110 2.85993e-109 2.05893e-108 1.46312e-107 1.02614e-106 7.10148e-106 4.84886e-105 3.26593e-104 2.16958e-103 1.42126e-102 9.17949e-102 5.84433e-101 3.66725e-100 2.26752e-99 1.38128e-98 8.28793e-98 4.89725e-97 2.8491e-96 1.63162e-95 9.19571e-95 5.09929e-94 2.78155e-93 1.49215e-92 7.87002e-92 4.08005e-91 2.07858e-90 1.0403e-89 5.11354e-89 2.4679e-88 1.16909e-87 5.43436e-87 2.47794e-86 1.10798e-85 4.85657e-85 2.08607e-84 8.77758e-84 3.61665e-83 1.45868e-82 5.75652e-82 2.22195e-81 8.38489e-81 3.09217e-80 1.11387e-79 3.91757e-79 1.34461e-78 4.50159e-78 1.46927e-77 4.6728e-77 1.4473e-76 4.36323e-76 1.27961e-75 3.64845e-75 1.01075e-74 2.71904e-74 7.0982e-74 1.79707e-73 4.40939e-73 1.04786e-72 2.41014e-72 5.36173e-72 1.15291e-71 2.39454e-71 4.8006e-71 9.28394e-71 1.73086e-70 3.10904e-70 5.37758e-70 8.95228e-70 1.43378e-69 2.2085e-69 3.27099e-69 4.65798e-69 6.37806e-69 8.39985e-69 1.06454e-68 1.29927e-68 1.52877e-68 1.7367e-68 1.90835e-68 2.03322e-68 2.10682e-68 2.13135e-68 2.11522e-68 2.07163e-68 2.01651e-68 1.9663e-68 1.93585e-68 1.93653e-68 1.97485e-68 2.0517e-68 2.16224e-68 2.29665e-68 2.44176e-68 2.58323e-68 2.70792e-68 2.80613e-68 2.87298e-68 2.90891e-68 2.9191e-68 2.91203e-68 2.89769e-68 2.88564e-68 2.88351e-68 2.89607e-68 2.92488e-68 2.96869e-68 3.0242e-68 3.08694e-68 3.15216e-68 3.21526e-68 3.27195e-68 3.31808e-68 3.3495e-68 3.362e-68 3.35177e-68 3.31603e-68 3.25375e-68 3.16617e-68 3.05682e-68 2.93103e-68 2.79498e-68 2.65481e-68 2.51581e-68 2.38217e-68 2.2572e-68 2.14384e-68 2.04517e-68 1.96472e-68 1.90614e-68 1.87246e-68 1.86508e-68 1.8829e-68 1.92194e-68 1.97571e-68 2.03629e-68 2.09572e-68 2.14746e-68 2.18739e-68 2.21424e-68 2.22951e-68 2.23681e-68 2.24109e-68 2.24765e-68 2.26118e-68 2.28481e-68 2.31938e-68 2.363e-68 2.41114e-68 2.45736e-68 2.49463e-68 2.51693e-68 2.52082e-68 2.50666e-68 2.47894e-68 2.4459e-68 2.41822e-68 2.4072e-68 2.42272e-68 2.47134e-68 2.55494e-68 2.67012e-68 2.80846e-68 2.95752e-68 3.10261e-68 3.22878e-68 3.32273e-68 3.37434e-68 3.37745e-68 3.32983e-68 3.23254e-68 3.08903e-68 2.90427e-68 2.68419e-68 2.43563e-68 2.16638e-68 1.88532e-68 1.60218e-68 1.32702e-68 1.06929e-68 8.36875e-69 6.35279e-69 4.67192e-69 3.32534e-69 2.28906e-69 1.52304e-69 9.79077e-70 6.07938e-70 3.64566e-70 2.11134e-70 1.18096e-70 6.38091e-71 3.33119e-71 1.68081e-71 8.19973e-72 3.86918e-72 1.76673e-72 7.81019e-73 3.34436e-73 1.38787e-73 5.58471e-74 2.18025e-74 8.26229e-75 3.04104e-75 1.08769e-75 3.7826e-76 1.27969e-76 4.21383e-77 1.35124e-77 4.22178e-78 1.28581e-78 3.81934e-79 1.10697e-79 3.13201e-80 8.6545e-81 2.3366e-81 6.16643e-82 1.59137e-82 4.01766e-83 9.92678e-84 2.40127e-84 5.68897e-85 1.32051e-85 3.00409e-86 6.70037e-87 1.46568e-87 3.1454e-88 6.62432e-89 1.36951e-89 2.78021e-90 5.54348e-91 1.08472e-91 2.01737e-92 0 
0 1.93143e-129 1.82891e-128 1.69563e-127 1.55572e-126 1.41254e-125 1.26909e-124 1.12816e-123 9.92163e-123 8.63154e-122 7.42744e-121 6.32104e-120 5.31971e-119 4.42678e-118 3.64198e-117 2.96201e-116 2.38113e-115 1.89178e-114 1.48524e-113 1.15214e-112 8.82959e-112 6.68408e-111 4.99746e-110 3.6898e-109 2.68993e-108 1.93596e-107 1.37533e-106 9.64288e-106 6.67151e-105 4.55397e-104 3.06643e-103 2.03648e-102 1.33369e-101 8.61149e-101 5.48118e-100 3.43843e-99 2.12546e-98 1.2944e-97 7.76453e-97 4.58676e-96 2.66777e-95 1.52738e-94 8.60601e-94 4.77107e-93 2.60186e-92 1.39541e-91 7.358e-91 3.81369e-90 1.94242e-89 9.71927e-89 4.77635e-88 2.30464e-87 1.0915e-86 5.07259e-86 2.31248e-85 1.03378e-84 4.53037e-84 1.94556e-83 8.1847e-83 3.3717e-82 1.35962e-81 5.36459e-81 2.07029e-80 7.81117e-80 2.88008e-79 1.0373e-78 3.64765e-78 1.25177e-77 4.1901e-77 1.36739e-76 4.34816e-76 1.34656e-75 4.05897e-75 1.19022e-74 3.39316e-74 9.39911e-74 2.52818e-73 6.59922e-73 1.67056e-72 4.09858e-72 9.73903e-72 2.23984e-71 4.98245e-71 1.07127e-70 2.22482e-70 4.46003e-70 8.62476e-70 1.60787e-69 2.88797e-69 4.99499e-69 8.31503e-69 1.33168e-68 2.05117e-68 3.03791e-68 4.32602e-68 5.92349e-68 7.80123e-68 9.88694e-68 1.20672e-67 1.41994e-67 1.61315e-67 1.77271e-67 1.88886e-67 1.95744e-67 1.98046e-67 1.96574e-67 1.92549e-67 1.8745e-67 1.82803e-67 1.79983e-67 1.80045e-67 1.83596e-67 1.90717e-67 2.00959e-67 2.13415e-67 2.26865e-67 2.39977e-67 2.51536e-67 2.60643e-67 2.66845e-67 2.70183e-67 2.71135e-67 2.70487e-67 2.69165e-67 2.68054e-67 2.67861e-67 2.69026e-67 2.71696e-67 2.75754e-67 2.80895e-67 2.86705e-67 2.92744e-67 2.98587e-67 3.03836e-67 3.08109e-67 3.11017e-67 3.12175e-67 3.11228e-67 3.07916e-67 3.02146e-67 2.94032e-67 2.83899e-67 2.72241e-67 2.5963e-67 2.46634e-67 2.33744e-67 2.21349e-67 2.09755e-67 1.99235e-67 1.90077e-67 1.82608e-67 1.77167e-67 1.74038e-67 1.7335e-67 1.75002e-67 1.78626e-67 1.83619e-67 1.89246e-67 1.94767e-67 1.99575e-67 2.03286e-67 2.05784e-67 2.07206e-67 2.07887e-67 2.08286e-67 2.08895e-67 2.10148e-67 2.12338e-67 2.15542e-67 2.19584e-67 2.24047e-67 2.28333e-67 2.3179e-67 2.3386e-67 2.34225e-67 2.32917e-67 2.30353e-67 2.27295e-67 2.24732e-67 2.23713e-67 2.25151e-67 2.29654e-67 2.37398e-67 2.48067e-67 2.6088e-67 2.74687e-67 2.88126e-67 2.99811e-67 3.08512e-67 3.1329e-67 3.13575e-67 3.09157e-67 3.00135e-67 2.86827e-67 2.6969e-67 2.49275e-67 2.26213e-67 2.01226e-67 1.75137e-67 1.48851e-67 1.233e-67 9.93644e-68 7.77759e-68 5.90468e-68 4.34285e-68 3.09144e-68 2.12828e-68 1.4162e-68 9.10488e-69 5.65402e-69 3.3909e-69 1.96397e-69 1.09863e-69 5.93656e-70 3.09947e-70 1.56403e-70 7.63064e-71 3.60095e-71 1.64439e-71 7.27002e-72 3.11334e-72 1.29212e-72 5.19992e-73 2.03023e-73 7.69457e-74 2.83239e-74 1.01318e-74 3.52387e-75 1.1923e-75 3.92658e-76 1.25929e-76 3.93502e-77 1.19864e-77 3.56093e-78 1.03223e-78 2.92098e-79 8.07265e-80 2.17986e-80 5.75375e-81 1.48513e-81 3.75009e-82 9.26735e-83 2.24217e-83 5.31304e-84 1.23348e-84 2.80668e-85 6.26132e-86 1.36992e-86 2.94051e-87 6.19414e-88 1.28086e-88 2.6008e-89 5.18692e-90 1.01518e-90 1.88844e-91 0 
0 1.7916e-128 1.69594e-127 1.57183e-126 1.44165e-125 1.30853e-124 1.17526e-123 1.0444e-122 9.18202e-122 7.98549e-121 6.86928e-120 5.84413e-119 4.91676e-118 4.09015e-117 3.36396e-116 2.73502e-115 2.19796e-114 1.74571e-113 1.37013e-112 1.06251e-111 8.14019e-111 6.16029e-110 4.60443e-109 3.39858e-108 2.47687e-107 1.78209e-106 1.26564e-105 8.87117e-105 6.13579e-104 4.18706e-103 2.81855e-102 1.87132e-101 1.22517e-100 7.90859e-100 5.03237e-99 3.15601e-98 1.95034e-97 1.18743e-96 7.12093e-96 4.20544e-95 2.44533e-94 1.39966e-93 7.88434e-93 4.36987e-92 2.38247e-91 1.27743e-90 6.73421e-90 3.48953e-89 1.77689e-88 8.8889e-88 4.36726e-87 2.10677e-86 9.97564e-86 4.63499e-85 2.11253e-84 9.4419e-84 4.13689e-83 1.77621e-82 7.47077e-82 3.07699e-81 1.24054e-80 4.89382e-80 1.88826e-79 7.12311e-79 2.62593e-78 9.45602e-78 3.32464e-77 1.14074e-76 3.81786e-76 1.24573e-75 3.96071e-75 1.2264e-74 3.69627e-74 1.08372e-73 3.08917e-73 8.55604e-73 2.30115e-72 6.00597e-72 1.52023e-71 3.72938e-71 8.86092e-71 2.03771e-70 4.53245e-70 9.74445e-70 2.02358e-69 4.05636e-69 7.84368e-69 1.46218e-68 2.62616e-68 4.54197e-68 7.56062e-68 1.21082e-67 1.86496e-67 2.76209e-67 3.93321e-67 5.38562e-67 7.0929e-67 8.98939e-67 1.09721e-66 1.29113e-66 1.46689e-66 1.61209e-66 1.71788e-66 1.78043e-66 1.8016e-66 1.78844e-66 1.75207e-66 1.7059e-66 1.66379e-66 1.63823e-66 1.63879e-66 1.67099e-66 1.73557e-66 1.82848e-66 1.94148e-66 2.06349e-66 2.18246e-66 2.28736e-66 2.37002e-66 2.42635e-66 2.4567e-66 2.4654e-66 2.45961e-66 2.44767e-66 2.43764e-66 2.43593e-66 2.44652e-66 2.47073e-66 2.50753e-66 2.55413e-66 2.6068e-66 2.66154e-66 2.7145e-66 2.76208e-66 2.8008e-66 2.82717e-66 2.83766e-66 2.82907e-66 2.79905e-66 2.74672e-66 2.67312e-66 2.58122e-66 2.47545e-66 2.36102e-66 2.24308e-66 2.12607e-66 2.01353e-66 1.90823e-66 1.81266e-66 1.72945e-66 1.66157e-66 1.6121e-66 1.58364e-66 1.57737e-66 1.59237e-66 1.62529e-66 1.67068e-66 1.72184e-66 1.77205e-66 1.81579e-66 1.84957e-66 1.87231e-66 1.88527e-66 1.89149e-66 1.89513e-66 1.90066e-66 1.91203e-66 1.93189e-66 1.96095e-66 1.99763e-66 2.03812e-66 2.07703e-66 2.10842e-66 2.12723e-66 2.13059e-66 2.11876e-66 2.09554e-66 2.06783e-66 2.04461e-66 2.03538e-66 2.04842e-66 2.08925e-66 2.15947e-66 2.2562e-66 2.37237e-66 2.49755e-66 2.61939e-66 2.72533e-66 2.80421e-66 2.84752e-66 2.85006e-66 2.80995e-66 2.72805e-66 2.60724e-66 2.45165e-66 2.26626e-66 2.05679e-66 1.8298e-66 1.59274e-66 1.35383e-66 1.12158e-66 9.03951e-67 7.07635e-67 5.37292e-67 3.95219e-67 2.81366e-67 1.93725e-67 1.28922e-67 8.28933e-68 5.14807e-68 3.08775e-68 1.78855e-68 1.00059e-68 5.40722e-69 2.82334e-69 1.4248e-69 6.95197e-70 3.28095e-70 1.49839e-70 6.6251e-71 2.8374e-71 1.1777e-71 4.73992e-72 1.85081e-72 7.01529e-73 2.58261e-73 9.23932e-74 3.21383e-74 1.08753e-74 3.58197e-75 1.14892e-75 3.59061e-76 1.09388e-76 3.25017e-77 9.42286e-78 2.66687e-78 7.37151e-79 1.99085e-79 5.25575e-80 1.35682e-80 3.4267e-81 8.46969e-82 2.04956e-82 4.85756e-83 1.12796e-83 2.56707e-84 5.72794e-85 1.25348e-85 2.69114e-86 5.67006e-87 1.17274e-87 2.3818e-88 4.75122e-89 9.30113e-90 1.73058e-90 0 
0 1.64461e-127 1.55629e-126 1.44192e-125 1.32206e-124 1.19959e-123 1.07706e-122 9.56816e-122 8.40925e-121 7.31104e-120 6.28706e-119 5.34707e-118 4.49713e-117 3.73987e-116 3.07489e-115 2.49921e-114 2.00782e-113 1.59419e-112 1.25082e-111 9.6969e-111 7.42674e-110 5.61865e-109 4.19831e-108 3.09788e-107 2.25704e-106 1.62344e-105 1.15263e-104 8.07663e-104 5.58461e-103 3.80983e-102 2.56388e-101 1.70174e-100 1.11384e-99 7.18787e-99 4.5725e-98 2.86681e-97 1.77114e-96 1.07803e-95 6.46315e-95 3.81596e-94 2.21828e-93 1.26937e-92 7.14858e-92 3.96107e-91 2.15905e-90 1.15735e-89 6.09971e-89 3.15998e-88 1.6087e-87 8.04566e-87 3.95206e-86 1.90604e-85 9.0232e-85 4.19154e-84 1.91e-83 8.53494e-83 3.73874e-82 1.60494e-81 6.74906e-81 2.7792e-80 1.12027e-79 4.41855e-79 1.70457e-78 6.42906e-78 2.36967e-77 8.53181e-77 2.99922e-76 1.02892e-75 3.44311e-75 1.12329e-74 3.57092e-74 1.10556e-73 3.33163e-73 9.76691e-73 2.78374e-72 7.70923e-72 2.07317e-71 5.4104e-71 1.36935e-70 3.35893e-70 7.98006e-70 1.83499e-69 4.08124e-69 8.77376e-69 1.82189e-68 3.65183e-68 7.06106e-68 1.31622e-67 2.36391e-67 4.08825e-67 6.80513e-67 1.0898e-66 1.67853e-66 2.48593e-66 3.53994e-66 4.84714e-66 6.38378e-66 8.09082e-66 9.87561e-66 1.16215e-65 1.32043e-65 1.45124e-65 1.54661e-65 1.6031e-65 1.62235e-65 1.61072e-65 1.57819e-65 1.53682e-65 1.49904e-65 1.4761e-65 1.47661e-65 1.50551e-65 1.56349e-65 1.6469e-65 1.74837e-65 1.85794e-65 1.96479e-65 2.05902e-65 2.13329e-65 2.18392e-65 2.21123e-65 2.21912e-65 2.21398e-65 2.20332e-65 2.19436e-65 2.19285e-65 2.20237e-65 2.22412e-65 2.25715e-65 2.29896e-65 2.34622e-65 2.39533e-65 2.44285e-65 2.48553e-65 2.52028e-65 2.54394e-65 2.55335e-65 2.54564e-65 2.51869e-65 2.47172e-65 2.40565e-65 2.32313e-65 2.22815e-65 2.12538e-65 2.01943e-65 1.91429e-65 1.81314e-65 1.71848e-65 1.63255e-65 1.5577e-65 1.49663e-65 1.45212e-65 1.42649e-65 1.42082e-65 1.4343e-65 1.46392e-65 1.50476e-65 1.5508e-65 1.59601e-65 1.63539e-65 1.66582e-65 1.68633e-65 1.69802e-65 1.70364e-65 1.70692e-65 1.71189e-65 1.7221e-65 1.73993e-65 1.76603e-65 1.79897e-65 1.83534e-65 1.87029e-65 1.89851e-65 1.91544e-65 1.91849e-65 1.9079e-65 1.88709e-65 1.86224e-65 1.84141e-65 1.83313e-65 1.84484e-65 1.88149e-65 1.9445e-65 2.03132e-65 2.13558e-65 2.24792e-65 2.35726e-65 2.45233e-65 2.52311e-65 2.56196e-65 2.56421e-65 2.52815e-65 2.45457e-65 2.34601e-65 2.20618e-65 2.03953e-65 1.85121e-65 1.64707e-65 1.43385e-65 1.21892e-65 1.00992e-65 8.14058e-66 6.37339e-66 4.83974e-66 3.5604e-66 2.53502e-66 1.74559e-66 1.16179e-66 7.47073e-67 4.64012e-67 2.78334e-67 1.61236e-67 9.02097e-68 4.87537e-68 2.54584e-68 1.28486e-68 6.26966e-69 2.95917e-69 1.35154e-69 5.97629e-70 2.55974e-70 1.06255e-70 4.27684e-71 1.67014e-71 6.33108e-72 2.33096e-72 8.3399e-73 2.90129e-73 9.81879e-74 3.23437e-74 1.03756e-74 3.24298e-75 9.88105e-76 2.93629e-76 8.51408e-77 2.41002e-77 6.66257e-78 1.79967e-78 4.7518e-79 1.22692e-79 3.09918e-80 7.66151e-81 1.85433e-81 4.39565e-82 1.02089e-82 2.32385e-83 5.18628e-84 1.13518e-84 2.43766e-85 5.13706e-86 1.06273e-86 2.15884e-87 4.30741e-88 8.43423e-89 1.56962e-89 0 
0 1.49401e-126 1.41332e-125 1.30902e-124 1.19981e-123 1.0883e-122 9.76818e-122 8.67484e-121 7.62164e-120 6.62414e-119 5.69453e-118 4.84157e-117 4.07068e-116 3.38415e-115 2.78154e-114 2.26007e-113 1.81512e-112 1.44074e-111 1.13007e-110 8.75813e-110 6.70569e-109 5.0716e-108 3.7884e-107 2.79457e-106 2.03545e-105 1.46362e-104 1.03885e-103 7.27724e-103 5.0304e-102 3.43076e-101 2.30812e-100 1.53155e-99 1.00216e-98 6.46539e-98 4.11176e-97 2.57724e-96 1.59181e-95 9.68617e-95 5.80565e-94 3.42686e-93 1.99157e-92 1.13935e-91 6.41472e-91 3.55354e-90 1.93644e-89 1.03777e-88 5.46816e-88 2.83213e-87 1.44146e-86 7.20758e-86 3.53958e-85 1.70673e-84 8.0779e-84 3.75162e-83 1.70918e-82 7.63597e-82 3.34427e-81 1.43532e-80 6.03462e-80 2.48453e-79 1.00131e-78 3.94864e-78 1.52303e-77 5.74335e-77 2.11658e-76 7.61935e-76 2.67805e-75 9.18601e-75 3.07349e-74 1.00257e-73 3.18671e-73 9.86482e-73 2.97242e-72 8.71283e-72 2.48303e-71 6.87571e-71 1.84883e-70 4.82447e-70 1.22094e-69 2.99464e-69 7.11401e-69 1.63572e-68 3.63779e-68 7.81993e-68 1.62373e-67 3.25445e-67 6.2924e-67 1.17289e-66 2.1064e-66 3.64278e-66 6.06344e-66 9.71001e-66 1.49553e-65 2.21488e-65 3.15395e-65 4.31862e-65 5.68778e-65 7.20886e-65 8.79938e-65 1.03555e-64 1.17665e-64 1.29331e-64 1.37842e-64 1.42892e-64 1.44626e-64 1.4361e-64 1.40729e-64 1.37058e-64 1.33704e-64 1.31666e-64 1.31711e-64 1.34278e-64 1.39431e-64 1.46845e-64 1.55864e-64 1.65604e-64 1.75104e-64 1.83482e-64 1.90088e-64 1.94593e-64 1.97027e-64 1.97734e-64 1.97282e-64 1.9634e-64 1.95548e-64 1.95417e-64 1.96264e-64 1.98197e-64 2.01131e-64 2.04846e-64 2.09043e-64 2.13405e-64 2.17625e-64 2.21416e-64 2.24502e-64 2.26603e-64 2.27439e-64 2.26754e-64 2.2436e-64 2.20186e-64 2.14315e-64 2.06981e-64 1.98538e-64 1.89401e-64 1.79979e-64 1.70627e-64 1.61628e-64 1.53205e-64 1.45555e-64 1.38892e-64 1.33453e-64 1.29487e-64 1.27203e-64 1.26697e-64 1.27896e-64 1.30533e-64 1.34171e-64 1.38273e-64 1.42301e-64 1.45812e-64 1.48526e-64 1.50356e-64 1.514e-64 1.51902e-64 1.52196e-64 1.52638e-64 1.53545e-64 1.55129e-64 1.57449e-64 1.60377e-64 1.63612e-64 1.6672e-64 1.69231e-64 1.70738e-64 1.71013e-64 1.70075e-64 1.68228e-64 1.66022e-64 1.64173e-64 1.63437e-64 1.64478e-64 1.67734e-64 1.73332e-64 1.81045e-64 1.90307e-64 2.00287e-64 2.10001e-64 2.18446e-64 2.24733e-64 2.28183e-64 2.2838e-64 2.25172e-64 2.18627e-64 2.0897e-64 1.9653e-64 1.81702e-64 1.64941e-64 1.46769e-64 1.27783e-64 1.08641e-64 9.00245e-65 7.25739e-65 5.6826e-65 4.31569e-65 3.17524e-65 2.26104e-65 1.55709e-65 1.03645e-65 6.66536e-66 4.14028e-66 2.48374e-66 1.43893e-66 8.05127e-67 4.35164e-67 2.27253e-67 1.14701e-67 5.5974e-68 2.64207e-68 1.2068e-68 5.33669e-69 2.28596e-69 9.4898e-70 3.82003e-70 1.49188e-70 5.65586e-71 2.08256e-71 7.45187e-72 2.59263e-72 8.77513e-73 2.89091e-73 9.27485e-74 2.89929e-74 8.83498e-75 2.62578e-75 7.61478e-76 2.15576e-76 5.96055e-77 1.61029e-77 4.25242e-78 1.09816e-78 2.77439e-79 6.85977e-80 1.66057e-80 3.93707e-81 9.14557e-82 2.0822e-82 4.64786e-83 1.01753e-83 2.18546e-84 4.60655e-85 9.53179e-86 1.93672e-86 3.86507e-87 7.56976e-88 1.40904e-88 0 
0 1.34299e-125 1.27004e-124 1.17592e-123 1.07746e-122 9.77004e-122 8.76634e-121 7.7826e-120 6.83551e-119 5.93898e-118 5.10388e-117 4.338e-116 3.64613e-115 3.03024e-114 2.48986e-113 2.02244e-112 1.62377e-111 1.28846e-110 1.01031e-109 7.82759e-109 5.99139e-108 4.52999e-107 3.38281e-106 2.49464e-105 1.81645e-104 1.30576e-103 9.26531e-103 6.48856e-102 4.48393e-101 3.05719e-100 2.05621e-99 1.36401e-98 8.92281e-98 5.75493e-97 3.65893e-96 2.29278e-95 1.41574e-94 8.6125e-94 5.16076e-93 3.04541e-92 1.76944e-91 1.01201e-90 5.69636e-90 3.15482e-89 1.71874e-88 9.20879e-88 4.8511e-87 2.51195e-86 1.2782e-85 6.38983e-85 3.1373e-84 1.51242e-83 7.15672e-83 3.3231e-82 1.51364e-81 6.76101e-81 2.96049e-80 1.27036e-79 5.34005e-79 2.19817e-78 8.85739e-78 3.49228e-77 1.34678e-76 5.07788e-76 1.87103e-75 6.73439e-75 2.36665e-74 8.11671e-74 2.71534e-73 8.8562e-73 2.81463e-72 8.71193e-72 2.62473e-71 7.69282e-71 2.19211e-70 6.06951e-70 1.6319e-69 4.25799e-69 1.07749e-68 2.64258e-68 6.27719e-68 1.44322e-67 3.20945e-67 6.89876e-67 1.43238e-66 2.87078e-66 5.55034e-66 1.03453e-65 1.85786e-65 3.21286e-65 5.34771e-65 8.56368e-65 1.31895e-64 1.95336e-64 2.78154e-64 3.80872e-64 5.01629e-64 6.35794e-64 7.76097e-64 9.13382e-64 1.0379e-63 1.14089e-63 1.21608e-63 1.26077e-63 1.27623e-63 1.26743e-63 1.24219e-63 1.20995e-63 1.18047e-63 1.16255e-63 1.16293e-63 1.18552e-63 1.23084e-63 1.29606e-63 1.37541e-63 1.46111e-63 1.54471e-63 1.61845e-63 1.67661e-63 1.71629e-63 1.73775e-63 1.74402e-63 1.7401e-63 1.73185e-63 1.72492e-63 1.72379e-63 1.73126e-63 1.74826e-63 1.77406e-63 1.80672e-63 1.84362e-63 1.88196e-63 1.91906e-63 1.95238e-63 1.97951e-63 1.99799e-63 2.00534e-63 1.99932e-63 1.97826e-63 1.94156e-63 1.88991e-63 1.82539e-63 1.7511e-63 1.6707e-63 1.58776e-63 1.50543e-63 1.42619e-63 1.35199e-63 1.2846e-63 1.22587e-63 1.17793e-63 1.14296e-63 1.12281e-63 1.11833e-63 1.12889e-63 1.15213e-63 1.18421e-63 1.22038e-63 1.25592e-63 1.2869e-63 1.31085e-63 1.32701e-63 1.33624e-63 1.34069e-63 1.34328e-63 1.34717e-63 1.35515e-63 1.36909e-63 1.3895e-63 1.41526e-63 1.44373e-63 1.4711e-63 1.4932e-63 1.5065e-63 1.50894e-63 1.50072e-63 1.4845e-63 1.46511e-63 1.44886e-63 1.4424e-63 1.45155e-63 1.48018e-63 1.52941e-63 1.59723e-63 1.67867e-63 1.76643e-63 1.85184e-63 1.9261e-63 1.98137e-63 2.01169e-63 2.0134e-63 1.98515e-63 1.92752e-63 1.8425e-63 1.73296e-63 1.60236e-63 1.4547e-63 1.29457e-63 1.12724e-63 9.585e-64 7.94347e-64 6.40446e-64 5.01537e-64 3.80941e-64 2.80307e-64 1.99625e-64 1.37489e-64 9.1526e-65 5.88659e-65 3.65687e-65 2.19393e-65 1.27114e-65 7.11298e-66 3.84479e-66 2.00798e-66 1.01356e-66 4.9465e-67 2.33499e-67 1.06662e-67 4.71708e-68 2.0207e-68 8.38924e-69 3.37727e-69 1.31907e-69 5.00115e-70 1.84164e-70 6.59044e-71 2.29314e-71 7.76227e-72 2.5575e-72 8.20609e-73 2.5655e-73 7.81876e-74 2.32405e-74 6.74064e-75 1.90855e-75 5.27778e-76 1.42604e-76 3.76644e-77 9.72811e-78 2.4581e-78 6.07875e-79 1.47176e-79 3.49003e-80 8.10858e-81 1.84644e-81 4.1224e-82 9.02669e-83 1.93915e-83 4.08819e-84 8.46095e-85 1.7195e-85 3.43231e-86 6.72367e-87 1.2518e-87 0 
0 1.19446e-124 1.12921e-123 1.04519e-122 9.57363e-122 8.67818e-121 7.78411e-120 6.90835e-119 6.06569e-118 5.26843e-117 4.52617e-116 3.84576e-115 3.23137e-114 2.6847e-113 2.20525e-112 1.7907e-111 1.43726e-110 1.14011e-109 8.93718e-109 6.92213e-108 5.29673e-107 4.00356e-106 2.9888e-105 2.20342e-104 1.60393e-103 1.15265e-102 8.17652e-102 5.72442e-101 3.95474e-100 2.69562e-99 1.81251e-98 1.20202e-97 7.86093e-97 5.06867e-96 3.22174e-95 2.01828e-94 1.24591e-93 7.57738e-93 4.53932e-92 2.67801e-91 1.55557e-90 8.89469e-90 5.00537e-89 2.77145e-88 1.50952e-87 8.0859e-87 4.25857e-86 2.20463e-85 1.12157e-84 5.60556e-84 2.75163e-83 1.32622e-82 6.27429e-82 2.91275e-81 1.32647e-80 5.92378e-80 2.59338e-79 1.11262e-78 4.67614e-78 1.92453e-77 7.75344e-77 3.0565e-76 1.17853e-75 4.44281e-75 1.63678e-74 5.89036e-74 2.06973e-73 7.09742e-73 2.37404e-72 7.74203e-72 2.46023e-71 7.61409e-71 2.29372e-70 6.72194e-70 1.91526e-69 5.30247e-69 1.42554e-68 3.71924e-68 9.41081e-68 2.30787e-67 5.48175e-67 1.26025e-66 2.80242e-66 6.02351e-66 1.25059e-65 2.50634e-65 4.84554e-65 9.03131e-65 1.62184e-64 2.80464e-64 4.66814e-64 7.47532e-64 1.15132e-63 1.70508e-63 2.42801e-63 3.32466e-63 4.37882e-63 5.55012e-63 6.77512e-63 7.97395e-63 9.06154e-63 9.96144e-63 1.06189e-62 1.10103e-62 1.11467e-62 1.10714e-62 1.08525e-62 1.05723e-62 1.03159e-62 1.01599e-62 1.01632e-62 1.03597e-62 1.07543e-62 1.13221e-62 1.20131e-62 1.27594e-62 1.34875e-62 1.41299e-62 1.46366e-62 1.49825e-62 1.51698e-62 1.52248e-62 1.51911e-62 1.51197e-62 1.50596e-62 1.505e-62 1.51152e-62 1.52632e-62 1.54878e-62 1.57719e-62 1.6093e-62 1.64266e-62 1.67493e-62 1.70393e-62 1.72753e-62 1.7436e-62 1.75e-62 1.74476e-62 1.72644e-62 1.69449e-62 1.64953e-62 1.59336e-62 1.52867e-62 1.45863e-62 1.38639e-62 1.31465e-62 1.24558e-62 1.1809e-62 1.12213e-62 1.07091e-62 1.02908e-62 9.98569e-63 9.80974e-63 9.77053e-63 9.86255e-63 1.00653e-62 1.03452e-62 1.06609e-62 1.09712e-62 1.12417e-62 1.1451e-62 1.15922e-62 1.1673e-62 1.17119e-62 1.17346e-62 1.17685e-62 1.1838e-62 1.19593e-62 1.2137e-62 1.23614e-62 1.26094e-62 1.28478e-62 1.30405e-62 1.31565e-62 1.3178e-62 1.31067e-62 1.29657e-62 1.27971e-62 1.26557e-62 1.25995e-62 1.26791e-62 1.29283e-62 1.33567e-62 1.3947e-62 1.46558e-62 1.54195e-62 1.61628e-62 1.6809e-62 1.729e-62 1.75537e-62 1.75683e-62 1.73221e-62 1.68199e-62 1.60791e-62 1.51243e-62 1.39859e-62 1.26984e-62 1.1302e-62 9.8423e-63 8.36999e-63 6.93741e-63 5.59402e-63 4.38125e-63 3.32817e-63 2.44925e-63 1.74447e-63 1.20161e-63 7.99988e-64 5.1457e-64 3.19691e-64 1.91814e-64 1.11144e-64 6.21979e-65 3.36223e-65 1.75608e-65 8.86467e-66 4.32652e-66 2.04246e-66 9.33049e-67 4.12666e-67 1.7679e-67 7.34018e-68 2.95516e-68 1.15429e-68 4.37674e-69 1.61184e-69 5.76857e-70 2.00736e-70 6.79553e-71 2.2392e-71 7.18554e-72 2.24669e-72 6.84793e-73 2.03573e-73 5.90513e-74 1.6722e-74 4.62482e-75 1.24979e-75 3.30141e-76 8.5283e-77 2.15527e-77 5.33073e-78 1.29087e-78 3.06159e-79 7.11442e-80 1.62035e-80 3.61829e-81 7.92437e-82 1.70267e-82 3.59035e-83 7.43214e-84 1.51073e-84 3.01622e-85 5.90983e-86 1.10051e-86 0 
0 1.05102e-123 9.93289e-123 9.19078e-122 8.41572e-121 7.62608e-120 6.83819e-119 6.06689e-118 5.32516e-117 4.62375e-116 3.97105e-115 3.37302e-114 2.83326e-113 2.3532e-112 1.93235e-111 1.56861e-110 1.25862e-109 9.98099e-109 7.82157e-108 6.05622e-107 4.63275e-106 3.50064e-105 2.61258e-104 1.92549e-103 1.40121e-102 1.00667e-101 7.13894e-101 4.99657e-100 3.45092e-99 2.35155e-98 1.58072e-97 1.04801e-96 6.85187e-96 4.41683e-95 2.80667e-94 1.75779e-93 1.08482e-92 6.59595e-92 3.95036e-91 2.32996e-90 1.35306e-89 7.73484e-89 4.35162e-88 2.40889e-87 1.31174e-86 7.0248e-86 3.69888e-85 1.91444e-84 9.73727e-84 4.86558e-83 2.38789e-82 1.15066e-81 5.44261e-81 2.52615e-80 1.15018e-79 5.13552e-79 2.24787e-78 9.64211e-78 4.05167e-77 1.66723e-76 6.71571e-76 2.64698e-75 1.02046e-74 3.84634e-74 1.41682e-73 5.09806e-73 1.79109e-72 6.14111e-72 2.0539e-71 6.6972e-71 2.12796e-70 6.58504e-70 1.98351e-69 5.81228e-69 1.65592e-68 4.58407e-68 1.2323e-67 3.21483e-67 8.13391e-67 1.9946e-66 4.73736e-66 1.08906e-65 2.4216e-65 5.20474e-65 1.08055e-64 2.16549e-64 4.18643e-64 7.80261e-64 1.40116e-63 2.42296e-63 4.03281e-63 6.45787e-63 9.94607e-63 1.473e-62 2.09754e-62 2.87218e-62 3.78294e-62 4.79497e-62 5.85351e-62 6.88959e-62 7.82975e-62 8.60797e-62 9.17696e-62 9.51625e-62 9.63536e-62 9.57161e-62 9.38371e-62 9.14269e-62 8.9219e-62 8.78751e-62 8.79032e-62 8.9596e-62 9.29952e-62 9.7888e-62 1.03842e-61 1.10274e-61 1.16549e-61 1.22087e-61 1.26456e-61 1.2944e-61 1.31058e-61 1.31536e-61 1.31249e-61 1.30637e-61 1.30122e-61 1.30041e-61 1.30604e-61 1.31879e-61 1.33813e-61 1.3626e-61 1.39025e-61 1.41897e-61 1.44676e-61 1.47172e-61 1.49205e-61 1.50589e-61 1.5114e-61 1.50689e-61 1.4911e-61 1.46358e-61 1.42485e-61 1.37645e-61 1.3207e-61 1.26034e-61 1.19806e-61 1.1362e-61 1.07663e-61 1.02082e-61 9.70111e-62 9.25898e-62 8.89782e-62 8.63428e-62 8.48224e-62 8.44826e-62 8.52764e-62 8.70267e-62 8.94438e-62 9.21715e-62 9.48521e-62 9.71904e-62 9.89994e-62 1.00221e-61 1.0092e-61 1.01258e-61 1.01454e-61 1.01746e-61 1.02345e-61 1.0339e-61 1.04921e-61 1.06855e-61 1.08993e-61 1.11049e-61 1.12711e-61 1.13712e-61 1.139e-61 1.13288e-61 1.12075e-61 1.10623e-61 1.09406e-61 1.08922e-61 1.09608e-61 1.11754e-61 1.15444e-61 1.20527e-61 1.26632e-61 1.33209e-61 1.39611e-61 1.45176e-61 1.49318e-61 1.51588e-61 1.51712e-61 1.49588e-61 1.45258e-61 1.38869e-61 1.30634e-61 1.20813e-61 1.09704e-61 9.7651e-62 8.50496e-62 7.23362e-62 5.9963e-62 4.83577e-62 3.78786e-62 2.87776e-62 2.11804e-62 1.50873e-62 1.03935e-62 6.92031e-63 4.45172e-63 2.766e-63 1.65973e-63 9.61778e-64 5.38267e-64 2.9099e-64 1.51993e-64 7.67305e-65 3.74516e-65 1.76812e-65 8.07768e-66 3.57278e-66 1.5307e-66 6.35577e-67 2.559e-67 9.99621e-68 3.79054e-68 1.39606e-68 4.99673e-69 1.73892e-69 5.8873e-70 1.94011e-70 6.22639e-71 1.94699e-71 5.9351e-72 1.76457e-72 5.11917e-73 1.44982e-73 4.01029e-74 1.08387e-74 2.86352e-75 7.39821e-76 1.86996e-76 4.62577e-77 1.12034e-77 2.65759e-78 6.17666e-79 1.40702e-79 3.14248e-80 6.88357e-81 1.47932e-81 3.11999e-82 6.45975e-83 1.31334e-83 2.62267e-84 5.1398e-85 9.57308e-86 0 
0 9.14836e-123 8.64307e-122 7.99472e-121 7.31813e-120 6.62933e-119 5.94249e-118 5.27053e-117 4.62468e-116 4.01426e-115 3.44651e-114 2.92655e-113 2.45746e-112 2.04044e-111 1.675e-110 1.35929e-109 1.09033e-108 8.64377e-108 6.77161e-107 5.24166e-106 4.00845e-105 3.028e-104 2.25917e-103 1.66454e-102 1.21096e-101 8.69739e-101 6.1661e-100 4.31445e-99 2.97897e-98 2.02938e-97 1.36378e-96 9.03932e-96 5.9083e-95 3.80757e-94 2.41887e-93 1.51452e-92 9.34442e-92 5.68015e-91 3.40102e-90 2.00545e-89 1.16432e-88 6.65428e-88 3.7428e-87 2.07138e-86 1.12769e-85 6.03775e-85 3.17843e-84 1.64471e-83 8.36352e-83 4.17824e-82 2.05013e-81 9.87701e-81 4.67087e-80 2.16752e-79 9.86703e-79 4.40478e-78 1.92766e-77 8.26713e-77 3.47329e-76 1.42899e-75 5.75512e-75 2.26801e-74 8.74227e-74 3.29466e-73 1.21343e-72 4.36563e-72 1.53357e-71 5.25746e-71 1.75815e-70 5.73219e-70 1.82114e-69 5.63499e-69 1.69718e-68 4.97277e-68 1.41662e-67 3.9213e-67 1.05405e-66 2.74962e-66 6.95644e-66 1.70576e-65 4.05111e-65 9.31251e-65 2.07062e-64 4.4502e-64 9.23871e-64 1.85143e-63 3.57918e-63 6.67069e-63 1.19787e-62 2.0714e-62 3.44763e-62 5.52076e-62 8.50277e-62 1.25925e-61 1.79318e-61 2.45545e-61 3.23414e-61 4.09947e-61 5.00466e-61 5.89077e-61 6.69505e-61 7.36104e-61 7.84833e-61 8.13939e-61 8.24231e-61 8.18892e-61 8.02934e-61 7.82418e-61 7.63608e-61 7.52151e-61 7.52386e-61 7.66812e-61 7.95789e-61 8.37506e-61 8.88275e-61 9.43129e-61 9.96651e-61 1.04389e-60 1.08117e-60 1.10664e-60 1.12047e-60 1.12458e-60 1.12216e-60 1.11697e-60 1.1126e-60 1.11193e-60 1.11673e-60 1.12761e-60 1.14409e-60 1.16494e-60 1.18849e-60 1.21297e-60 1.23664e-60 1.25791e-60 1.27523e-60 1.28702e-60 1.29172e-60 1.28788e-60 1.27443e-60 1.25097e-60 1.21795e-60 1.17668e-60 1.12915e-60 1.07766e-60 1.02453e-60 9.71745e-61 9.20904e-61 8.73265e-61 8.2996e-61 7.92196e-61 7.61339e-61 7.38815e-61 7.25815e-61 7.22903e-61 7.29677e-61 7.44631e-61 7.65287e-61 7.88604e-61 8.11524e-61 8.31521e-61 8.46998e-61 8.57456e-61 8.63444e-61 8.66338e-61 8.68019e-61 8.70512e-61 8.7561e-61 8.8452e-61 8.97575e-61 9.14071e-61 9.32303e-61 9.49846e-61 9.64036e-61 9.72593e-61 9.74212e-61 9.69011e-61 9.58681e-61 9.46318e-61 9.35946e-61 9.31824e-61 9.37671e-61 9.55961e-61 9.87406e-61 1.03073e-60 1.08275e-60 1.13881e-60 1.19336e-60 1.24078e-60 1.27608e-60 1.29542e-60 1.29646e-60 1.27833e-60 1.24138e-60 1.18686e-60 1.11658e-60 1.03274e-60 9.37878e-61 8.34938e-61 7.27285e-61 6.18648e-61 5.12894e-61 4.13682e-61 3.24079e-61 2.46244e-61 1.81258e-61 1.2913e-61 8.89653e-62 5.9242e-62 3.8113e-62 2.36829e-62 1.4212e-62 8.23617e-63 4.60975e-63 2.49222e-63 1.30184e-63 6.57243e-64 3.20813e-64 1.51466e-64 6.92013e-65 3.06096e-65 1.31149e-65 5.44586e-66 2.19278e-66 8.56616e-67 3.24848e-67 1.1965e-67 4.28279e-68 1.49057e-68 5.04691e-69 1.66331e-69 5.33855e-70 1.66953e-70 5.08982e-71 1.51342e-71 4.39107e-72 1.24376e-72 3.44074e-73 9.30055e-74 2.45748e-74 6.35007e-75 1.60526e-75 3.97159e-76 9.62049e-77 2.28247e-77 5.30571e-78 1.20883e-78 2.70031e-79 5.91606e-80 1.27163e-80 2.68247e-81 5.55497e-82 1.12961e-82 2.25623e-83 4.42258e-84 8.23884e-85 0 