# vtk DataFile Version 3.0
Gray-Scott Simulation Output
ASCII
DATASET STRUCTURED_POINTS
DIMENSIONS 256 256 1
SPACING 1.0 1.0 1.0
ORIGIN 0 0 0
POINT_DATA 65536
SCALARS u double
LOOKUP_TABLE default
0 0 0 0 0 0 0 0 0 0 0 0 0 0 0 0 0 0 0 0 0 0 0 0 0 0 0 0 0 0 0 0 0 0 0 0 0 0 0 0 0 0 0 0 0 0 0 0 0 0 0 0 0 0 0 0 0 0 0 0 0 0 0 0 0 0 0 0 0 0 0 0 0 0 0 0 0 0 0 0 0 0 0 0 0 0 0 0 0 0 0 0 0 0 0 0 0 0 0 0 0 0 0 0 0 0 0 0 0 0 0 0 0 0 0 0 0 0 0 0 0 0 0 0 0 0 0 0 0 0 0 0 0 0 0 0 0 0 0 0 0 0 0 0 0 0 0 0 0 0 0 0 0 0 0 0 0 0 0 0 0 0 0 0 0 0 0 0 0 0 0 0 0 0 0 0 0 0 0 0 0 0 0 0 0 0 0 0 0 0 0 0 0 0 0 0 0 0 0 0 0 0 0 0 0 0 0 0 0 0 0 0 0 0 0 0 0 0 0 0 0 0 0 0 0 0 0 0 0 0 0 0 0 0 0 0 0 0 0 0 0 0 0 0 0 0 0 0 0 0 0 0 0 0 0 0 
0 6.75161e-80 2.56938e-79 9.04291e-79 3.13925e-78 1.08006e-77 3.68393e-77 1.24567e-76 4.17536e-76 1.38726e-75 4.56846e-75 1.49107e-74 4.82298e-74 1.54594e-73 4.9102e-73 1.54528e-72 4.81818e-72 1.48833e-71 4.55435e-71 1.38048e-70 4.14455e-70 1.23236e-69 3.62894e-69 1.0582e-68 3.05544e-68 8.73487e-68 2.47221e-67 6.92667e-67 1.92105e-66 5.27344e-66 1.43269e-65 3.85192e-65 1.02478e-64 2.6976e-64 7.02549e-64 1.81005e-63 4.61299e-63 1.16281e-62 2.8989e-62 7.14682e-62 1.74224e-61 4.19929e-61 1.00063e-60 2.35702e-60 5.4878e-60 1.2628e-59 2.87165e-59 6.45273e-59 1.4326e-58 3.14219e-58 6.80799e-58 1.45693e-57 3.07927e-57 6.42684e-57 1.32447e-56 2.69485e-56 5.41288e-56 1.07319e-55 2.10004e-55 4.05544e-55 7.72786e-55 1.45293e-54 2.69491e-54 4.93076e-54 8.89825e-54 1.58369e-53 2.77949e-53 4.80999e-53 8.20658e-53 1.3803e-52 2.28844e-52 3.7395e-52 6.02224e-52 9.55725e-52 1.49452e-51 2.30265e-51 3.49526e-51 5.22666e-51 7.69903e-51 1.11709e-50 1.59648e-50 2.24718e-50 3.11533e-50 4.25355e-50 5.71976e-50 7.57506e-50 9.88068e-50 1.2694e-49 1.60638e-49 2.0025e-49 2.45935e-49 2.97614e-49 3.54933e-49 4.17247e-49 4.83623e-49 5.52867e-49 6.23585e-49 6.94255e-49 7.63327e-49 8.29326e-49 8.90957e-49 9.47192e-49 9.97343e-49 1.0411e-48 1.07852e-48 1.11004e-48 1.13635e-48 1.15838e-48 1.17716e-48 1.19372e-48 1.20901e-48 1.22384e-48 1.23881e-48 1.25429e-48 1.27044e-48 1.28723e-48 1.30447e-48 1.32189e-48 1.33918e-48 1.35604e-48 1.37223e-48 1.38759e-48 1.40202e-48 1.41552e-48 1.42813e-48 1.43992e-48 1.45095e-48 1.46125e-48 1.47078e-48 1.47944e-48 1.48704e-48 1.49331e-48 1.49794e-48 1.50056e-48 1.50083e-48 1.49839e-48 1.49298e-48 1.48441e-48 1.47259e-48 1.45759e-48 1.43958e-48 1.41889e-48 1.39598e-48 1.3714e-48 1.34579e-48 1.31986e-48 1.29432e-48 1.26985e-48 1.2471e-48 1.22662e-48 1.20886e-48 1.19412e-48 1.18257e-48 1.17423e-48 1.16899e-48 1.16663e-48 1.16683e-48 1.16923e-48 1.17341e-48 1.17899e-48 1.18558e-48 1.19286e-48 1.20055e-48 1.20845e-48 1.21641e-48 1.2243e-48 1.23206e-48 1.23966e-48 1.24707e-48 1.2543e-48 1.26138e-48 1.26836e-48 1.27534e-48 1.28244e-48 1.28982e-48 1.29768e-48 1.30619e-48 1.31554e-48 1.32585e-48 1.33714e-48 1.34932e-48 1.36216e-48 1.37523e-48 1.38793e-48 1.3995e-48 1.40903e-48 1.4155e-48 1.41784e-48 1.41498e-48 1.40593e-48 1.38981e-48 1.36593e-48 1.33385e-48 1.29337e-48 1.24461e-48 1.18796e-48 1.12411e-48 1.05403e-48 9.78886e-49 9.00042e-49 8.18967e-49 7.3718e-49 6.5618e-49 5.77382e-49 5.02052e-49 4.31266e-49 3.65869e-49 3.0646e-49 2.53385e-49 2.06751e-49 1.66451e-49 1.32196e-49 1.03554e-49 7.99975e-50 6.09383e-50 4.5768e-50 3.38887e-50 2.47365e-50 1.77986e-50 1.26236e-50 8.82506e-51 6.0811e-51 4.13025e-51 2.76505e-51 1.82462e-51 1.18685e-51 7.61005e-52 4.81026e-52 2.9975e-52 1.84156e-52 1.11551e-52 6.66278e-53 3.92428e-53 2.2794e-53 1.30579e-53 7.3783e-54 4.11247e-54 2.26128e-54 1.22673e-54 6.56642e-55 3.46843e-55 1.80802e-55 9.30217e-56 4.72406e-56 2.36832e-56 1.17221e-56 5.72858e-57 2.76447e-57 1.31748e-57 6.20111e-58 2.88257e-58 1.32257e-58 5.9682e-59 2.59743e-59 9.67463e-60 0 
0 2.57004e-79 9.78173e-79 3.44319e-78 1.19549e-77 4.11376e-77 1.40338e-76 4.74614e-76 1.59114e-75 5.28754e-75 1.74159e-74 5.68535e-74 1.83933e-73 5.89691e-73 1.87336e-72 5.89686e-72 1.83905e-71 5.68207e-71 1.73913e-70 5.27274e-70 1.58339e-69 4.70931e-69 1.3871e-68 4.04585e-68 1.1685e-67 3.34139e-67 9.45966e-67 2.65116e-66 7.35489e-66 2.01956e-65 5.48839e-65 1.47605e-64 3.92817e-64 1.03436e-63 2.69472e-63 6.94497e-63 1.77054e-62 4.46458e-62 1.11341e-61 2.7459e-61 6.69629e-61 1.61458e-60 3.84873e-60 9.06915e-60 2.11234e-59 4.86258e-59 1.10619e-58 2.48662e-58 5.52284e-58 1.21183e-57 2.62664e-57 5.62337e-57 1.189e-56 2.4826e-56 5.11835e-56 1.04184e-55 2.0935e-55 4.15238e-55 8.12884e-55 1.57043e-54 2.99375e-54 5.6309e-54 1.04485e-53 1.91248e-53 3.4527e-53 6.14746e-53 1.07934e-52 1.86853e-52 3.18919e-52 5.36599e-52 8.89953e-52 1.45476e-51 2.34357e-51 3.72041e-51 5.81957e-51 8.96897e-51 1.3618e-50 2.0369e-50 3.00112e-50 4.35543e-50 6.22573e-50 8.76482e-50 1.21528e-49 1.65951e-49 2.23177e-49 2.95592e-49 3.85582e-49 4.9538e-49 6.26883e-49 7.81441e-49 9.59659e-49 1.1612e-48 1.38467e-48 1.62752e-48 1.88607e-48 2.15565e-48 2.43077e-48 2.70548e-48 2.97373e-48 3.22974e-48 3.46847e-48 3.68594e-48 3.87947e-48 4.0479e-48 4.19152e-48 4.31201e-48 4.41219e-48 4.49567e-48 4.5665e-48 4.62874e-48 4.68614e-48 4.74186e-48 4.79823e-48 4.85673e-48 4.91797e-48 4.9818e-48 5.04752e-48 5.11404e-48 5.18017e-48 5.24474e-48 5.30679e-48 5.36567e-48 5.42104e-48 5.47285e-48 5.52126e-48 5.56654e-48 5.60892e-48 5.6485e-48 5.68517e-48 5.7185e-48 5.74776e-48 5.77196e-48 5.78984e-48 5.80003e-48 5.80113e-48 5.79185e-48 5.77112e-48 5.7382e-48 5.69279e-48 5.63509e-48 5.56581e-48 5.48622e-48 5.39804e-48 5.30343e-48 5.20488e-48 5.10507e-48 5.00673e-48 4.91256e-48 4.82501e-48 4.74622e-48 4.67789e-48 4.6212e-48 4.5768e-48 4.54477e-48 4.52468e-48 4.51567e-48 4.51652e-48 4.52579e-48 4.54193e-48 4.5634e-48 4.58875e-48 4.61674e-48 4.64632e-48 4.67667e-48 4.7072e-48 4.7375e-48 4.7673e-48 4.79646e-48 4.8249e-48 4.85266e-48 4.87983e-48 4.90664e-48 4.93344e-48 4.9607e-48 4.98907e-48 5.01925e-48 5.052e-48 5.08798e-48 5.12768e-48 5.17121e-48 5.21825e-48 5.26785e-48 5.31841e-48 5.36764e-48 5.4126e-48 5.44977e-48 5.47523e-48 5.48484e-48 5.47448e-48 5.44028e-48 5.37884e-48 5.2875e-48 5.16446e-48 5.00897e-48 4.82141e-48 4.60327e-48 4.35719e-48 4.08683e-48 3.79672e-48 3.49207e-48 3.17857e-48 2.8621e-48 2.54846e-48 2.24315e-48 1.95111e-48 1.67652e-48 1.4227e-48 1.192e-48 9.85805e-49 8.04557e-49 6.47864e-49 5.14626e-49 4.0319e-49 3.11512e-49 2.3732e-49 1.78254e-49 1.31994e-49 9.63497e-50 6.93266e-50 4.91686e-50 3.43717e-50 2.3683e-50 1.60839e-50 1.07664e-50 7.10363e-51 4.61995e-51 2.9618e-51 1.87178e-51 1.16615e-51 7.16286e-52 4.33784e-52 2.59028e-52 1.52524e-52 8.8569e-53 5.07239e-53 2.86528e-53 1.59655e-53 8.77609e-54 4.75947e-54 2.54682e-54 1.34481e-54 7.0079e-55 3.60431e-55 1.82981e-55 9.17029e-56 4.53729e-56 2.21661e-56 1.06931e-56 5.0943e-57 2.39696e-57 1.11383e-57 5.10869e-58 2.30458e-58 1.00267e-58 3.73378e-59 0 
0 9.04787e-79 3.4442e-78 1.21258e-77 4.21091e-77 1.44928e-76 4.94507e-76 1.67273e-75 5.60898e-75 1.86432e-74 6.14197e-74 2.00547e-73 6.48962e-73 2.08107e-72 6.61284e-72 2.08207e-71 6.49499e-71 2.00727e-70 6.14537e-70 1.86368e-69 5.59817e-69 1.66548e-68 4.90702e-68 1.43169e-67 4.1362e-67 1.18314e-66 3.35062e-66 9.39355e-66 2.60684e-65 7.16052e-65 1.94663e-64 5.23715e-64 1.39425e-63 3.67269e-63 9.57166e-63 2.46781e-62 6.29384e-62 1.58768e-61 3.96105e-61 9.77282e-61 2.38424e-60 5.75118e-60 1.37152e-59 3.23325e-59 7.53403e-59 1.73509e-58 3.94895e-58 8.88095e-58 1.97338e-57 4.33202e-57 9.39407e-57 2.01212e-56 4.25641e-56 8.89155e-56 1.83403e-55 3.73497e-55 7.50875e-55 1.49005e-54 2.91838e-54 5.64078e-54 1.07584e-53 2.02448e-53 3.75834e-53 6.88244e-53 1.2431e-52 2.21433e-52 3.88956e-52 6.73653e-52 1.15028e-51 1.93623e-51 3.21259e-51 5.25354e-51 8.46657e-51 1.34457e-50 2.10396e-50 3.24366e-50 4.92657e-50 7.37108e-50 1.08634e-49 1.57698e-49 2.25468e-49 3.17488e-49 4.40288e-49 6.01321e-49 8.08781e-49 1.07131e-48 1.39754e-48 1.79555e-48 2.27219e-48 2.83228e-48 3.47796e-48 4.20792e-48 5.01699e-48 5.89579e-48 6.8309e-48 7.80521e-48 8.79877e-48 9.7899e-48 1.07566e-47 1.16779e-47 1.25356e-47 1.33154e-47 1.40076e-47 1.46082e-47 1.51184e-47 1.55445e-47 1.58969e-47 1.61889e-47 1.64353e-47 1.66508e-47 1.68493e-47 1.70421e-47 1.72378e-47 1.74417e-47 1.76561e-47 1.78804e-47 1.81121e-47 1.83471e-47 1.85812e-47 1.881e-47 1.90302e-47 1.92393e-47 1.9436e-47 1.96201e-47 1.97922e-47 1.99532e-47 2.0104e-47 2.0245e-47 2.03757e-47 2.04945e-47 2.0599e-47 2.06855e-47 2.07496e-47 2.07862e-47 2.07906e-47 2.07578e-47 2.06843e-47 2.05672e-47 2.04056e-47 2.02e-47 1.99531e-47 1.96694e-47 1.93549e-47 1.90176e-47 1.86661e-47 1.83101e-47 1.79593e-47 1.76235e-47 1.73113e-47 1.70304e-47 1.67868e-47 1.65849e-47 1.64268e-47 1.63128e-47 1.62415e-47 1.62096e-47 1.62129e-47 1.62462e-47 1.63039e-47 1.63805e-47 1.64709e-47 1.65706e-47 1.66759e-47 1.67839e-47 1.68925e-47 1.70002e-47 1.71061e-47 1.72098e-47 1.73109e-47 1.74096e-47 1.75062e-47 1.76015e-47 1.76968e-47 1.77938e-47 1.78947e-47 1.80022e-47 1.81189e-47 1.82472e-47 1.83889e-47 1.85445e-47 1.87129e-47 1.88906e-47 1.9072e-47 1.92491e-47 1.94112e-47 1.95458e-47 1.9639e-47 1.96759e-47 1.96417e-47 1.95225e-47 1.93061e-47 1.89827e-47 1.85459e-47 1.79928e-47 1.73246e-47 1.65464e-47 1.56674e-47 1.47007e-47 1.36624e-47 1.25711e-47 1.14471e-47 1.03114e-47 9.18503e-48 8.08773e-48 7.03735e-48 6.04909e-48 5.135e-48 4.30368e-48 3.56025e-48 2.90644e-48 2.34095e-48 1.85991e-48 1.45743e-48 1.12621e-48 8.58083e-49 6.44577e-49 4.77328e-49 3.48437e-49 2.50712e-49 1.77808e-49 1.24291e-49 8.56326e-50 5.81496e-50 3.89196e-50 2.5675e-50 1.66951e-50 1.07009e-50 6.76118e-51 4.21134e-51 2.58606e-51 1.56569e-51 9.34658e-52 5.50188e-52 3.19386e-52 1.82853e-52 1.03254e-52 5.75138e-53 3.16033e-53 1.71328e-53 9.16443e-54 4.83728e-54 2.51976e-54 1.29546e-54 6.57407e-55 3.29335e-55 1.62883e-55 7.95415e-56 3.8356e-56 1.82657e-56 8.59086e-57 3.99044e-57 1.82952e-57 8.24989e-58 3.58806e-58 1.33577e-58 0 
0 3.14192e-78 1.19621e-77 4.21218e-77 1.46304e-76 5.03639e-76 1.71882e-75 5.81533e-75 1.95041e-74 6.48426e-74 2.13672e-73 6.97844e-73 2.25874e-72 7.24503e-72 2.30278e-71 7.25226e-71 2.26294e-70 6.9955e-70 2.14231e-69 6.49876e-69 1.95269e-68 5.81108e-68 1.71265e-67 4.99849e-67 1.44454e-66 4.13342e-66 1.17096e-65 3.28395e-65 9.11662e-65 2.50507e-64 6.81267e-64 1.83354e-63 4.88317e-63 1.28681e-62 3.35496e-62 8.65337e-62 2.20784e-61 5.57179e-61 1.39068e-60 3.43259e-60 8.37801e-60 2.02181e-59 4.82369e-59 1.13767e-58 2.65218e-58 6.11085e-58 1.39144e-57 3.13076e-57 6.96003e-57 1.52863e-56 3.31649e-56 7.10711e-56 1.50418e-55 3.14377e-55 6.48782e-55 1.3219e-54 2.65887e-54 5.279e-54 1.03445e-53 2.00045e-53 3.81728e-53 7.18687e-53 1.33487e-52 2.44567e-52 4.41952e-52 7.87626e-52 1.38415e-51 2.39841e-51 4.09722e-51 6.89982e-51 1.14531e-50 1.87372e-50 3.02091e-50 4.79935e-50 7.51276e-50 1.15865e-49 1.76039e-49 2.63471e-49 3.88415e-49 5.6399e-49 8.06561e-49 1.13599e-48 1.57567e-48 2.15231e-48 2.89525e-48 3.8354e-48 5.00366e-48 6.42888e-48 8.13538e-48 1.01403e-47 1.2451e-47 1.50625e-47 1.79558e-47 2.10969e-47 2.44372e-47 2.79151e-47 3.14586e-47 3.49898e-47 3.84296e-47 4.17033e-47 4.47455e-47 4.75051e-47 4.99485e-47 5.20614e-47 5.38491e-47 5.53347e-47 5.65562e-47 5.75617e-47 5.84046e-47 5.91387e-47 5.98132e-47 6.04693e-47 6.11377e-47 6.18377e-47 6.2577e-47 6.33538e-47 6.41587e-47 6.49776e-47 6.57948e-47 6.65949e-47 6.73655e-47 6.80978e-47 6.87872e-47 6.94328e-47 7.00366e-47 7.06018e-47 7.11315e-47 7.16268e-47 7.20863e-47 7.25048e-47 7.2873e-47 7.31782e-47 7.34048e-47 7.35351e-47 7.35517e-47 7.3438e-47 7.31804e-47 7.27696e-47 7.22017e-47 7.14791e-47 7.06107e-47 6.96123e-47 6.85058e-47 6.73182e-47 6.6081e-47 6.48277e-47 6.35932e-47 6.2411e-47 6.13123e-47 6.03239e-47 5.94672e-47 5.87571e-47 5.82015e-47 5.78015e-47 5.75515e-47 5.74405e-47 5.7453e-47 5.75709e-47 5.77745e-47 5.80444e-47 5.83625e-47 5.87129e-47 5.90828e-47 5.9462e-47 5.9843e-47 6.0221e-47 6.05926e-47 6.09562e-47 6.13109e-47 6.1657e-47 6.1996e-47 6.23305e-47 6.26649e-47 6.30054e-47 6.33599e-47 6.37375e-47 6.41479e-47 6.45996e-47 6.5099e-47 6.5648e-47 6.62425e-47 6.68713e-47 6.75143e-47 6.8143e-47 6.87204e-47 6.92024e-47 6.95394e-47 6.96792e-47 6.95693e-47 6.91604e-47 6.84089e-47 6.72803e-47 6.57508e-47 6.38098e-47 6.14606e-47 5.87209e-47 5.56229e-47 5.22116e-47 4.85437e-47 4.46847e-47 4.07063e-47 3.66832e-47 3.26896e-47 2.87959e-47 2.50659e-47 2.15539e-47 1.83033e-47 1.53453e-47 1.26984e-47 1.03693e-47 8.3539e-48 6.63872e-48 5.20311e-48 4.02126e-48 3.06427e-48 2.30204e-48 1.70484e-48 1.24453e-48 8.95476e-49 6.35062e-49 4.43895e-49 3.05802e-49 2.07634e-49 1.3895e-49 9.16491e-50 5.95832e-50 3.81823e-50 2.41192e-50 1.50193e-50 9.22038e-51 5.58071e-51 3.33045e-51 1.95984e-51 1.13731e-51 6.509e-52 3.67421e-52 2.04581e-52 1.12372e-52 6.08959e-53 3.25605e-53 1.71796e-53 8.94525e-54 4.59702e-54 2.33188e-54 1.16769e-54 5.77274e-55 2.81783e-55 1.35822e-55 6.46528e-56 3.0395e-56 1.41125e-56 6.46748e-57 2.91521e-57 1.26741e-57 4.71699e-58 0 
0 1.08131e-77 4.11749e-77 1.45016e-76 5.03794e-76 1.73462e-75 5.92115e-75 2.00376e-74 6.72195e-74 2.23526e-73 7.36745e-73 2.40676e-72 7.792e-72 2.49997e-71 7.94805e-71 2.50379e-70 7.81478e-70 2.41649e-69 7.40243e-69 2.24622e-68 6.75128e-68 2.00976e-67 5.92509e-67 1.72984e-66 5.00081e-66 1.43142e-65 4.05651e-65 1.13804e-64 3.16049e-64 8.6876e-64 2.36353e-63 6.36358e-63 1.69544e-62 4.4696e-62 1.16579e-61 3.00813e-61 7.67825e-61 1.93854e-60 4.84057e-60 1.19532e-59 2.91876e-59 7.04689e-59 1.68204e-58 3.96896e-58 9.25704e-58 2.13393e-57 4.86133e-57 1.09435e-56 2.43406e-56 5.34862e-56 1.16101e-55 2.48928e-55 5.27114e-55 1.10225e-54 2.27591e-54 4.63959e-54 9.33701e-54 1.85477e-53 3.63644e-53 7.03592e-53 1.3433e-52 2.53037e-52 4.70226e-52 8.61966e-52 1.55843e-51 2.77874e-51 4.88571e-51 8.46987e-51 1.4476e-50 2.43893e-50 4.05024e-50 6.62906e-50 1.06922e-49 1.69938e-49 2.6612e-49 4.10575e-49 6.24023e-49 9.34258e-49 1.37773e-48 2.00106e-48 2.86244e-48 4.03247e-48 5.59434e-48 7.64293e-48 1.02825e-47 1.36228e-47 1.77735e-47 2.28367e-47 2.88984e-47 3.60187e-47 4.42226e-47 5.34912e-47 6.37555e-47 7.48932e-47 8.67298e-47 9.90443e-47 1.1158e-46 1.24059e-46 1.36199e-46 1.47734e-46 1.58434e-46 1.68117e-46 1.76667e-46 1.84033e-46 1.90239e-46 1.95368e-46 1.99559e-46 2.02983e-46 2.05833e-46 2.08302e-46 2.10566e-46 2.12771e-46 2.15027e-46 2.17403e-46 2.19926e-46 2.22589e-46 2.25359e-46 2.28186e-46 2.31013e-46 2.33785e-46 2.36458e-46 2.39001e-46 2.41396e-46 2.4364e-46 2.45739e-46 2.47706e-46 2.4955e-46 2.51276e-46 2.52878e-46 2.54338e-46 2.55625e-46 2.56693e-46 2.57487e-46 2.57947e-46 2.5801e-46 2.57618e-46 2.56724e-46 2.55295e-46 2.53317e-46 2.50798e-46 2.4777e-46 2.44287e-46 2.40426e-46 2.36282e-46 2.31964e-46 2.2759e-46 2.23281e-46 2.19156e-46 2.15322e-46 2.11874e-46 2.08886e-46 2.06411e-46 2.04475e-46 2.03083e-46 2.02215e-46 2.01831e-46 2.01878e-46 2.02293e-46 2.03005e-46 2.03948e-46 2.05057e-46 2.06279e-46 2.07567e-46 2.08886e-46 2.10212e-46 2.11527e-46 2.12819e-46 2.14083e-46 2.15317e-46 2.1652e-46 2.17699e-46 2.18863e-46 2.20026e-46 2.21211e-46 2.22446e-46 2.23761e-46 2.25192e-46 2.26769e-46 2.28514e-46 2.30434e-46 2.32517e-46 2.34723e-46 2.36983e-46 2.39198e-46 2.41238e-46 2.4295e-46 2.4416e-46 2.44685e-46 2.44341e-46 2.42954e-46 2.4037e-46 2.36468e-46 2.31161e-46 2.24411e-46 2.16225e-46 2.06665e-46 1.9584e-46 1.83905e-46 1.71059e-46 1.57529e-46 1.43567e-46 1.29434e-46 1.15393e-46 1.01691e-46 8.8555e-47 7.61773e-47 6.47127e-47 5.4273e-47 4.49258e-47 3.66964e-47 2.95716e-47 2.35055e-47 1.84261e-47 1.4243e-47 1.08549e-47 8.15553e-48 6.04016e-48 4.40943e-48 3.17272e-48 2.24999e-48 1.57259e-48 1.08327e-48 7.35429e-49 4.9208e-49 3.24512e-49 2.1093e-49 1.35139e-49 8.53442e-50 5.31307e-50 3.26078e-50 1.97301e-50 1.17707e-50 6.92431e-51 4.01682e-51 2.29805e-51 1.29672e-51 7.21739e-52 3.96281e-52 2.14662e-52 1.14731e-52 6.05088e-53 3.14931e-53 1.61775e-53 8.20266e-54 4.10569e-54 2.02885e-54 9.89902e-55 4.76931e-55 2.26925e-55 1.06636e-55 4.94897e-56 2.26703e-56 1.02143e-56 4.43903e-57 1.65161e-57 0 
0 3.68935e-77 1.40509e-76 4.94963e-76 1.71988e-75 5.92299e-75 2.02226e-74 6.84501e-74 2.2968e-73 7.6394e-73 2.51857e-72 8.22959e-72 2.66505e-71 8.55272e-71 2.71987e-70 8.57047e-70 2.67575e-69 8.2764e-69 2.53606e-68 7.69784e-68 2.3144e-67 6.89184e-67 2.03249e-66 5.93585e-66 1.71659e-65 4.91525e-65 1.39343e-64 3.91067e-64 1.08644e-63 2.98757e-63 8.13108e-63 2.19008e-62 5.83737e-62 1.5395e-61 4.01711e-61 1.03699e-60 2.64808e-60 6.68861e-60 1.67091e-59 4.12799e-59 1.00845e-58 2.43589e-58 5.81707e-58 1.37326e-57 3.20452e-57 7.39071e-57 1.68454e-56 3.79403e-56 8.44308e-56 1.85625e-55 4.03144e-55 8.64821e-55 1.83226e-54 3.8335e-54 7.9196e-54 1.61534e-53 3.25256e-53 6.46462e-53 1.26813e-52 2.45496e-52 4.68955e-52 8.83845e-52 1.64335e-51 3.014e-51 5.45215e-51 9.72646e-51 1.71102e-50 2.96772e-50 5.07468e-50 8.55397e-50 1.42119e-49 2.32714e-49 3.75517e-49 5.97084e-49 9.35402e-49 1.44371e-48 2.19506e-48 3.28746e-48 4.84946e-48 7.0456e-48 1.00811e-47 1.42051e-47 1.97111e-47 2.69338e-47 3.62407e-47 4.80187e-47 6.26536e-47 8.05044e-47 1.01872e-46 1.26967e-46 1.55872e-46 1.88517e-46 2.24652e-46 2.6384e-46 3.0546e-46 3.48726e-46 3.92726e-46 4.36477e-46 4.78983e-46 5.19306e-46 5.56632e-46 5.90329e-46 6.1999e-46 6.45451e-46 6.66797e-46 6.84338e-46 6.98565e-46 7.101e-46 7.19624e-46 7.27822e-46 7.3532e-46 7.42638e-46 7.50164e-46 7.58138e-46 7.66659e-46 7.75701e-46 7.85145e-46 7.94813e-46 8.04505e-46 8.14027e-46 8.2322e-46 8.31971e-46 8.4022e-46 8.47955e-46 8.55195e-46 8.61979e-46 8.68345e-46 8.74307e-46 8.79848e-46 8.84903e-46 8.89361e-46 8.93067e-46 8.9583e-46 8.97438e-46 8.97673e-46 8.96336e-46 8.9326e-46 8.88331e-46 8.81499e-46 8.72792e-46 8.62319e-46 8.5027e-46 8.3691e-46 8.22567e-46 8.07621e-46 7.92481e-46 7.77567e-46 7.63288e-46 7.50021e-46 7.38092e-46 7.27759e-46 7.19201e-46 7.12514e-46 7.07709e-46 7.04718e-46 7.03404e-46 7.03581e-46 7.05024e-46 7.07496e-46 7.10761e-46 7.146e-46 7.18822e-46 7.2327e-46 7.27825e-46 7.32399e-46 7.36933e-46 7.4139e-46 7.45749e-46 7.50002e-46 7.54153e-46 7.58219e-46 7.62233e-46 7.66247e-46 7.70336e-46 7.74598e-46 7.79143e-46 7.84091e-46 7.89549e-46 7.95597e-46 8.02262e-46 8.095e-46 8.17178e-46 8.25059e-46 8.32799e-46 8.39953e-46 8.45986e-46 8.50298e-46 8.52252e-46 8.51207e-46 8.46557e-46 8.37763e-46 8.24394e-46 8.06145e-46 7.82872e-46 7.54597e-46 7.21519e-46 6.8401e-46 6.42606e-46 5.97985e-46 5.50938e-46 5.02337e-46 4.53095e-46 4.04124e-46 3.56295e-46 3.10401e-46 2.67124e-46 2.27009e-46 1.90455e-46 1.57706e-46 1.28856e-46 1.03866e-46 8.25793e-47 6.47474e-47 5.0057e-47 3.81544e-47 2.86691e-47 2.12343e-47 1.55019e-47 1.11541e-47 7.9098e-48 5.52805e-48 3.80758e-48 2.58463e-48 1.72912e-48 1.14009e-48 7.40899e-49 4.74569e-49 2.99628e-49 1.8648e-49 1.14414e-49 6.92073e-50 4.12744e-50 2.42718e-50 1.40751e-50 8.04941e-51 4.54026e-51 2.52605e-51 1.38639e-51 7.50683e-52 4.01047e-52 2.1142e-52 1.0999e-52 5.64751e-53 2.86223e-53 1.43199e-53 7.07307e-54 3.44947e-54 1.66118e-54 7.90035e-55 3.71084e-55 1.72141e-55 7.88193e-56 3.54971e-56 1.54205e-56 5.73567e-57 0 
0 1.2479e-76 4.75342e-76 1.6748e-75 5.82076e-75 2.00501e-74 6.84716e-74 2.31818e-73 7.78034e-73 2.58845e-72 8.53577e-72 2.78983e-71 9.03689e-71 2.90092e-70 9.22782e-70 2.90857e-69 9.08337e-69 2.81042e-68 8.61435e-68 2.61558e-67 7.86641e-67 2.34324e-66 6.91281e-66 2.01957e-65 5.84246e-65 1.67352e-64 4.74602e-64 1.33247e-63 3.70323e-63 1.01874e-62 2.77374e-62 7.47401e-62 1.99292e-61 5.25822e-61 1.37265e-60 3.54497e-60 9.0565e-60 2.28856e-59 5.71979e-59 1.41375e-58 3.45537e-58 8.35041e-58 1.99512e-57 4.71233e-57 1.10018e-56 2.53869e-56 5.78935e-56 1.3046e-55 2.90475e-55 6.38964e-55 1.38847e-54 2.98015e-54 6.31738e-54 1.32247e-53 2.7336e-53 5.57874e-53 1.12394e-52 2.23513e-52 4.38701e-52 8.49749e-52 1.62413e-51 3.06271e-51 5.6977e-51 1.04557e-50 1.8924e-50 3.37778e-50 5.94514e-50 1.0317e-49 1.76507e-49 2.97672e-49 4.94806e-49 8.10602e-49 1.30862e-48 2.08166e-48 3.26253e-48 5.03745e-48 7.66196e-48 1.14791e-47 1.69389e-47 2.46173e-47 3.5233e-47 4.96583e-47 6.89208e-47 9.4192e-47 1.26758e-46 1.67972e-46 2.19181e-46 2.81637e-46 3.56388e-46 4.44155e-46 5.4522e-46 6.59318e-46 7.85555e-46 9.22379e-46 1.06759e-45 1.21842e-45 1.37166e-45 1.52384e-45 1.67148e-45 1.8113e-45 1.94045e-45 2.05674e-45 2.15877e-45 2.24599e-45 2.31875e-45 2.37815e-45 2.42595e-45 2.46435e-45 2.49578e-45 2.52264e-45 2.54713e-45 2.57109e-45 2.59588e-45 2.62234e-45 2.65081e-45 2.6812e-45 2.71309e-45 2.74586e-45 2.77879e-45 2.8112e-45 2.84254e-45 2.8724e-45 2.90058e-45 2.927e-45 2.95176e-45 2.97497e-45 2.99676e-45 3.01718e-45 3.03618e-45 3.05354e-45 3.06886e-45 3.08161e-45 3.09115e-45 3.09672e-45 3.0976e-45 3.09307e-45 3.08258e-45 3.06572e-45 3.04232e-45 3.01247e-45 2.97655e-45 2.93521e-45 2.88936e-45 2.84014e-45 2.78883e-45 2.73686e-45 2.68566e-45 2.63665e-45 2.59113e-45 2.5502e-45 2.51475e-45 2.48541e-45 2.4625e-45 2.44606e-45 2.43584e-45 2.43139e-45 2.43204e-45 2.43703e-45 2.44553e-45 2.45675e-45 2.46992e-45 2.48439e-45 2.49962e-45 2.51521e-45 2.53086e-45 2.54637e-45 2.5616e-45 2.57651e-45 2.59105e-45 2.60525e-45 2.61915e-45 2.63288e-45 2.64661e-45 2.66061e-45 2.6752e-45 2.69077e-45 2.70774e-45 2.72648e-45 2.74727e-45 2.77021e-45 2.79516e-45 2.82167e-45 2.84894e-45 2.87578e-45 2.90067e-45 2.92178e-45 2.93703e-45 2.94424e-45 2.94119e-45 2.92578e-45 2.89615e-45 2.85077e-45 2.78858e-45 2.70905e-45 2.61223e-45 2.49875e-45 2.36989e-45 2.22745e-45 2.07375e-45 1.91151e-45 1.74372e-45 1.57354e-45 1.40413e-45 1.23851e-45 1.07946e-45 9.29348e-46 7.901e-46 6.63122e-46 5.49285e-46 4.48943e-46 3.61977e-46 2.87861e-46 2.25749e-46 1.74559e-46 1.3307e-46 9.99989e-47 7.40708e-47 5.40762e-47 3.89091e-47 2.75909e-47 1.92816e-47 1.32793e-47 9.01291e-48 6.02866e-48 3.97423e-48 2.58212e-48 1.65353e-48 1.04371e-48 6.4939e-49 3.98307e-49 2.4085e-49 1.43591e-49 8.44093e-50 4.893e-50 2.79717e-50 1.5771e-50 8.77082e-51 4.81172e-51 2.60425e-51 1.39069e-51 7.328e-52 3.81061e-52 1.95569e-52 9.90709e-53 4.95427e-53 2.44593e-53 1.1923e-53 5.73911e-54 2.72816e-54 1.28083e-54 5.93883e-55 2.71799e-55 1.22352e-55 5.31297e-56 1.97554e-56 0 
0 4.18416e-76 1.59409e-75 5.61771e-75 1.95286e-74 6.72829e-74 2.29826e-73 7.78282e-73 2.61273e-72 8.69449e-72 2.86786e-71 9.37579e-71 3.03785e-70 9.75445e-70 3.10377e-69 9.78581e-69 3.05699e-68 9.46133e-68 2.90094e-67 8.81098e-67 2.65079e-66 7.89882e-66 2.33105e-65 6.81253e-65 1.97152e-64 5.64933e-64 1.60273e-63 4.50149e-63 1.25155e-62 3.44434e-62 9.38182e-62 2.52905e-61 6.74653e-61 1.78081e-60 4.65083e-60 1.20166e-59 3.07134e-59 7.76487e-59 1.94159e-58 4.80131e-58 1.17408e-57 2.83875e-57 6.78592e-57 1.60361e-56 3.74588e-56 8.64827e-56 1.97325e-55 4.44902e-55 9.91135e-55 2.18143e-54 4.74288e-54 1.01857e-53 2.1604e-53 4.52512e-53 9.35898e-53 1.91109e-52 3.85245e-52 7.66565e-52 1.50545e-51 2.9177e-51 5.57982e-51 1.05282e-50 1.95974e-50 3.59829e-50 6.51629e-50 1.16376e-49 2.04942e-49 3.55842e-49 6.09107e-49 1.02776e-48 1.70926e-48 2.80152e-48 4.52486e-48 7.20109e-48 1.1291e-47 1.74409e-47 2.6538e-47 3.97737e-47 5.87111e-47 8.53517e-47 1.22193e-46 1.72265e-46 2.3914e-46 3.26886e-46 4.3997e-46 5.83085e-46 7.60905e-46 9.77759e-46 1.23726e-45 1.54187e-45 1.89254e-45 2.28826e-45 2.72587e-45 3.19989e-45 3.7026e-45 4.22431e-45 4.75378e-45 5.27896e-45 5.78769e-45 6.26856e-45 6.71175e-45 7.10971e-45 7.45764e-45 7.75379e-45 7.99944e-45 8.19859e-45 8.35746e-45 8.4838e-45 8.58611e-45 8.67283e-45 8.75165e-45 8.82899e-45 8.90956e-45 8.9963e-45 9.09038e-45 9.19148e-45 9.29812e-45 9.40811e-45 9.51897e-45 9.62833e-45 9.73423e-45 9.83524e-45 9.93062e-45 1.00201e-44 1.01041e-44 1.01828e-44 1.02567e-44 1.03261e-44 1.03907e-44 1.04498e-44 1.0502e-44 1.05456e-44 1.05782e-44 1.05974e-44 1.06006e-44 1.05854e-44 1.05499e-44 1.04927e-44 1.04132e-44 1.03118e-44 1.01896e-44 1.0049e-44 9.89297e-45 9.72541e-45 9.55077e-45 9.37385e-45 9.19958e-45 9.03277e-45 8.87783e-45 8.73857e-45 8.61802e-45 8.51828e-45 8.44046e-45 8.38465e-45 8.35006e-45 8.33506e-45 8.33742e-45 8.35453e-45 8.38357e-45 8.42178e-45 8.46658e-45 8.51576e-45 8.5675e-45 8.6204e-45 8.67348e-45 8.72605e-45 8.77771e-45 8.82824e-45 8.87754e-45 8.92567e-45 8.97282e-45 9.01938e-45 9.06597e-45 9.11346e-45 9.16299e-45 9.21591e-45 9.27361e-45 9.33742e-45 9.40829e-45 9.48662e-45 9.57194e-45 9.66274e-45 9.75631e-45 9.84866e-45 9.9346e-45 1.00079e-44 1.00615e-44 1.00878e-44 1.00794e-44 1.0029e-44 9.93011e-45 9.77755e-45 9.56757e-45 9.29823e-45 8.96955e-45 8.58366e-45 8.14472e-45 7.65884e-45 7.13384e-45 6.57898e-45 6.00449e-45 5.42117e-45 4.83989e-45 4.27108e-45 3.72429e-45 3.20779e-45 2.72829e-45 2.29071e-45 1.89814e-45 1.55189e-45 1.25163e-45 9.95609e-46 7.80952e-46 6.03975e-46 4.60488e-46 3.4608e-46 2.56364e-46 1.87167e-46 1.3467e-46 9.54919e-47 6.67281e-47 4.59508e-47 3.11834e-47 2.08547e-47 1.37452e-47 8.92844e-48 5.71611e-48 3.60701e-48 2.24359e-48 1.37568e-48 8.31568e-49 4.95589e-49 2.9122e-49 1.68747e-49 9.64281e-50 5.43455e-50 3.02105e-50 1.65663e-50 8.96217e-51 4.78368e-51 2.51951e-51 1.30955e-51 6.71769e-52 3.40141e-52 1.70013e-52 8.38952e-53 4.08758e-53 1.9666e-53 9.34394e-54 4.38472e-54 2.03208e-54 9.29565e-55 4.18256e-55 1.81544e-55 6.74823e-56 0 
0 1.39064e-75 5.29905e-75 1.86782e-74 6.49447e-74 2.23809e-73 7.6467e-73 2.59011e-72 8.69728e-72 2.89497e-71 9.55152e-71 3.12349e-70 1.01232e-69 3.25146e-69 1.03489e-68 3.26385e-68 1.01991e-67 3.15759e-67 9.68462e-67 2.94246e-66 8.85544e-66 2.63965e-65 7.79272e-65 2.27827e-64 6.59567e-64 1.89069e-63 5.366e-63 1.50771e-62 4.19362e-62 1.15458e-61 3.14622e-61 8.48491e-61 2.26444e-60 5.97987e-60 1.56244e-59 4.03883e-59 1.03278e-58 2.61231e-58 6.53524e-58 1.61689e-57 3.95582e-57 9.56953e-57 2.28876e-56 5.41153e-56 1.26476e-55 2.9216e-55 6.66979e-55 1.50466e-54 3.35391e-54 7.38596e-54 1.60679e-53 3.45269e-53 7.32751e-53 1.53571e-52 3.17807e-52 6.49343e-52 1.30975e-51 2.60772e-51 5.12436e-51 9.9374e-51 1.90157e-50 3.5901e-50 6.6866e-50 1.22845e-49 2.22595e-49 3.97765e-49 7.00875e-49 1.21761e-48 2.08538e-48 3.5206e-48 5.85812e-48 9.60647e-48 1.55234e-47 2.47164e-47 3.87718e-47 5.99154e-47 9.12042e-47 1.36744e-46 2.01924e-46 2.93643e-46 4.20515e-46 5.9299e-46 8.23382e-46 1.12572e-45 1.51539e-45 2.00856e-45 2.62129e-45 3.36845e-45 4.2624e-45 5.31153e-45 6.51884e-45 7.88073e-45 9.38599e-45 1.10155e-44 1.27423e-44 1.45326e-44 1.63477e-44 1.81456e-44 1.98844e-44 2.15248e-44 2.30331e-44 2.43834e-44 2.55596e-44 2.6556e-44 2.73775e-44 2.80383e-44 2.85604e-44 2.89708e-44 2.92991e-44 2.95747e-44 2.98242e-44 3.00699e-44 3.03281e-44 3.06088e-44 3.09162e-44 3.12489e-44 3.16019e-44 3.19677e-44 3.23374e-44 3.27031e-44 3.30577e-44 3.33964e-44 3.37165e-44 3.40171e-44 3.42991e-44 3.45638e-44 3.48127e-44 3.50464e-44 3.52642e-44 3.54636e-44 3.56401e-44 3.57875e-44 3.58982e-44 3.59636e-44 3.59752e-44 3.59249e-44 3.58058e-44 3.56135e-44 3.53459e-44 3.5004e-44 3.45921e-44 3.41176e-44 3.35911e-44 3.30256e-44 3.24361e-44 3.18389e-44 3.12507e-44 3.06877e-44 3.01648e-44 2.9695e-44 2.92885e-44 2.89523e-44 2.86901e-44 2.85024e-44 2.83862e-44 2.83362e-44 2.83447e-44 2.84029e-44 2.85012e-44 2.86302e-44 2.87814e-44 2.89471e-44 2.91213e-44 2.92993e-44 2.94778e-44 2.96546e-44 2.98282e-44 2.9998e-44 3.01637e-44 3.03255e-44 3.0484e-44 3.06406e-44 3.07973e-44 3.09571e-44 3.11238e-44 3.13021e-44 3.14967e-44 3.17121e-44 3.19517e-44 3.2217e-44 3.25063e-44 3.28148e-44 3.31334e-44 3.34486e-44 3.3743e-44 3.39955e-44 3.41823e-44 3.42778e-44 3.42565e-44 3.40936e-44 3.37673e-44 3.32594e-44 3.25569e-44 3.16529e-44 3.05472e-44 2.92463e-44 2.7764e-44 2.61208e-44 2.43427e-44 2.24611e-44 2.05104e-44 1.85275e-44 1.65494e-44 1.46117e-44 1.27472e-44 1.09844e-44 9.34647e-45 7.85057e-45 6.5076e-45 5.32231e-45 4.29383e-45 3.41641e-45 2.68041e-45 2.07337e-45 1.58102e-45 1.18834e-45 8.80339e-46 6.42738e-46 4.62457e-46 3.27905e-46 2.29116e-46 1.57757e-46 1.07042e-46 7.15746e-47 4.71643e-47 3.06292e-47 1.96041e-47 1.23671e-47 7.69005e-48 4.71365e-48 2.8483e-48 1.69686e-48 9.9673e-49 5.77319e-49 3.29762e-49 1.85769e-49 1.03222e-49 5.65775e-50 3.05935e-50 1.63219e-50 8.59247e-51 4.46387e-51 2.28874e-51 1.1583e-51 5.78668e-52 2.85408e-52 1.38988e-52 6.6836e-53 3.17399e-53 1.48868e-53 6.89577e-54 3.15288e-54 1.41795e-54 6.15192e-55 2.28598e-55 0 