# vtk DataFile Version 3.0
Gray-Scott Simulation Output
ASCII
DATASET STRUCTURED_POINTS
DIMENSIONS 256 256 1
SPACING 1.0 1.0 1.0
ORIGIN 0 0 0
POINT_DATA 65536
SCALARS u double
LOOKUP_TABLE default
0 0 0 0 0 0 0 0 0 0 0 0 0 0 0 0 0 0 0 0 0 0 0 0 0 0 0 0 0 0 0 0 0 0 0 0 0 0 0 0 0 0 0 0 0 0 0 0 0 0 0 0 0 0 0 0 0 0 0 0 0 0 0 0 0 0 0 0 0 0 0 0 0 0 0 0 0 0 0 0 0 0 0 0 0 0 0 0 0 0 0 0 0 0 0 0 0 0 0 0 0 0 0 0 0 0 0 0 0 0 0 0 0 0 0 0 0 0 0 0 0 0 0 0 0 0 0 0 0 0 0 0 0 0 0 0 0 0 0 0 0 0 0 0 0 0 0 0 0 0 0 0 0 0 0 0 0 0 0 0 0 0 0 0 0 0 0 0 0 0 0 0 0 0 0 0 0 0 0 0 0 0 0 0 0 0 0 0 0 0 0 0 0 0 0 0 0 0 0 0 0 0 0 0 0 0 0 0 0 0 0 0 0 0 0 0 0 0 0 0 0 0 0 0 0 0 0 0 0 0 0 0 0 0 0 0 0 0 0 0 0 0 0 0 0 0 0 0 0 0 0 0 0 0 0 0 
0 1.25678e-96 6.72638e-96 3.44513e-95 1.74565e-94 8.76027e-94 4.35383e-93 2.14281e-92 1.04428e-91 5.03884e-91 2.40708e-90 1.1383e-89 5.32835e-89 2.46862e-88 1.13189e-87 5.13568e-87 2.30566e-86 1.02412e-85 4.50016e-85 1.95603e-84 8.40912e-84 3.57526e-83 1.50314e-82 6.24855e-82 2.56802e-81 1.0433e-80 4.18945e-80 1.66263e-79 6.52034e-79 2.52656e-78 9.67208e-78 3.65751e-77 1.36606e-76 5.03871e-76 1.83515e-75 6.5989e-75 2.34238e-74 8.20667e-74 2.83752e-73 9.68079e-73 3.25849e-72 1.08191e-71 3.54297e-71 1.14413e-70 3.64292e-70 1.14345e-69 3.53755e-69 1.07854e-68 3.23999e-68 9.58845e-68 2.79494e-67 8.02302e-67 2.26759e-66 6.30914e-66 1.72772e-65 4.65577e-65 1.23435e-64 3.21903e-64 8.25595e-64 2.08197e-63 5.16128e-63 1.25755e-62 3.01083e-62 7.08183e-62 1.6361e-61 3.71182e-61 8.26758e-61 1.80755e-60 3.87815e-60 8.16369e-60 1.6857e-59 3.41356e-59 6.77759e-59 1.31913e-58 2.51624e-58 4.703e-58 8.61126e-58 1.54433e-57 2.71212e-57 4.66329e-57 7.84895e-57 1.29299e-56 2.08436e-56 3.28764e-56 5.07313e-56 7.65773e-56 1.13063e-55 1.63271e-55 2.30596e-55 3.18529e-55 4.30344e-55 5.68702e-55 7.35207e-55 9.2997e-55 1.15125e-54 1.39524e-54 1.6561e-54 1.92622e-54 2.19678e-54 2.45851e-54 2.7026e-54 2.92162e-54 3.11037e-54 3.26638e-54 3.3902e-54 3.48524e-54 3.55729e-54 3.61374e-54 3.6626e-54 3.71153e-54 3.76688e-54 3.8331e-54 3.91224e-54 4.00402e-54 4.10601e-54 4.21426e-54 4.32398e-54 4.43032e-54 4.52909e-54 4.61731e-54 4.69352e-54 4.75783e-54 4.81171e-54 4.85767e-54 4.89868e-54 4.93775e-54 4.97738e-54 5.01924e-54 5.06396e-54 5.11105e-54 5.15896e-54 5.20523e-54 5.24679e-54 5.28015e-54 5.30179e-54 5.30839e-54 5.29712e-54 5.26588e-54 5.21351e-54 5.13988e-54 5.04597e-54 4.93382e-54 4.80644e-54 4.66766e-54 4.52186e-54 4.37384e-54 4.22846e-54 4.09052e-54 3.96442e-54 3.85399e-54 3.76228e-54 3.69134e-54 3.64207e-54 3.61419e-54 3.60624e-54 3.61572e-54 3.63933e-54 3.67337e-54 3.71409e-54 3.75806e-54 3.80257e-54 3.84574e-54 3.88662e-54 3.92509e-54 3.96162e-54 3.99699e-54 4.03193e-54 4.06687e-54 4.10178e-54 4.13611e-54 4.16894e-54 4.19925e-54 4.22619e-54 4.24951e-54 4.26977e-54 4.28852e-54 4.30821e-54 4.33198e-54 4.3632e-54 4.40495e-54 4.45937e-54 4.52718e-54 4.60725e-54 4.69647e-54 4.78976e-54 4.88042e-54 4.96059e-54 5.02193e-54 5.05627e-54 5.05629e-54 5.01601e-54 4.93129e-54 4.80004e-54 4.62235e-54 4.40046e-54 4.1386e-54 3.84277e-54 3.5204e-54 3.17994e-54 2.8304e-54 2.4809e-54 2.14009e-54 1.81577e-54 1.51444e-54 1.24099e-54 9.98627e-55 7.88785e-55 6.11311e-55 4.64687e-55 3.46355e-55 2.53065e-55 1.81217e-55 1.2716e-55 8.74225e-56 5.88815e-56 3.88499e-56 2.51097e-56 1.58976e-56 9.85988e-57 5.9907e-57 3.56599e-57 2.07976e-57 1.18857e-57 6.65668e-58 3.65403e-58 1.9662e-58 1.03727e-58 5.36571e-59 2.72214e-59 1.35461e-59 6.6133e-60 3.1681e-60 1.48949e-60 6.87413e-61 3.11473e-61 1.3859e-61 6.05666e-62 2.60023e-62 1.09686e-62 4.54711e-63 1.85289e-63 7.423e-64 2.92419e-64 1.13296e-64 4.31801e-65 1.61919e-65 5.975e-66 2.17012e-66 7.75911e-67 2.73151e-67 9.46953e-68 3.23319e-68 1.08655e-68 3.56741e-69 1.05717e-69 0 
0 6.72796e-96 3.60069e-95 1.84412e-94 9.34376e-94 4.68883e-93 2.33025e-92 1.14683e-91 5.58876e-91 2.69661e-90 1.28815e-89 6.09149e-89 2.85134e-88 1.321e-87 6.05683e-87 2.74811e-86 1.23375e-85 5.48005e-85 2.40801e-84 1.04666e-83 4.49971e-83 1.91314e-82 8.04348e-82 3.34373e-81 1.37423e-80 5.58315e-80 2.24203e-79 8.89804e-79 3.48968e-78 1.35227e-77 5.17694e-77 1.95776e-76 7.31256e-76 2.69739e-75 9.82481e-75 3.53307e-74 1.25421e-73 4.39453e-73 1.51957e-72 5.18477e-72 1.74532e-71 5.79551e-71 1.89807e-70 6.13008e-70 1.95203e-69 6.12778e-69 1.89602e-68 5.78137e-68 1.73698e-67 5.14111e-67 1.49879e-66 4.30297e-66 1.21635e-65 3.38479e-65 9.27051e-65 2.49857e-64 6.62534e-64 1.7281e-63 4.43288e-63 1.11807e-62 2.77225e-62 6.75584e-62 1.61778e-61 3.80593e-61 8.79446e-61 1.99558e-60 4.44574e-60 9.72166e-60 2.08622e-59 4.39245e-59 9.07163e-59 1.83738e-58 3.6488e-58 7.10307e-58 1.35517e-57 2.53336e-57 4.63946e-57 8.32182e-57 1.46171e-56 2.51373e-56 4.23164e-56 6.97202e-56 1.12409e-55 1.77326e-55 2.73666e-55 4.1314e-55 6.10049e-55 8.81043e-55 1.24446e-54 1.71914e-54 2.32277e-54 3.06972e-54 3.96865e-54 5.02015e-54 6.21478e-54 7.532e-54 8.94021e-54 1.03983e-53 1.18587e-53 1.32711e-53 1.45882e-53 1.57698e-53 1.67878e-53 1.76288e-53 1.82959e-53 1.88075e-53 1.91948e-53 1.94977e-53 1.97594e-53 2.00212e-53 2.03175e-53 2.06721e-53 2.10964e-53 2.15886e-53 2.21358e-53 2.27169e-53 2.33059e-53 2.38768e-53 2.44071e-53 2.48808e-53 2.529e-53 2.56352e-53 2.59244e-53 2.6171e-53 2.6391e-53 2.66006e-53 2.68132e-53 2.70378e-53 2.72778e-53 2.75306e-53 2.77878e-53 2.80363e-53 2.82595e-53 2.84387e-53 2.85551e-53 2.85908e-53 2.85305e-53 2.83631e-53 2.80821e-53 2.7687e-53 2.7183e-53 2.6581e-53 2.58972e-53 2.5152e-53 2.43692e-53 2.35743e-53 2.27936e-53 2.20528e-53 2.13756e-53 2.07826e-53 2.02901e-53 1.99092e-53 1.96448e-53 1.94954e-53 1.9453e-53 1.95043e-53 1.96315e-53 1.98146e-53 2.00336e-53 2.02699e-53 2.05091e-53 2.07409e-53 2.09603e-53 2.11667e-53 2.13627e-53 2.15524e-53 2.17397e-53 2.19272e-53 2.21145e-53 2.22987e-53 2.2475e-53 2.26377e-53 2.27824e-53 2.29076e-53 2.30163e-53 2.31167e-53 2.32222e-53 2.33496e-53 2.35169e-53 2.37408e-53 2.40327e-53 2.43965e-53 2.48262e-53 2.53052e-53 2.58061e-53 2.62929e-53 2.67234e-53 2.70529e-53 2.72375e-53 2.72375e-53 2.70211e-53 2.65659e-53 2.58604e-53 2.49051e-53 2.37119e-53 2.23035e-53 2.0712e-53 1.89771e-53 1.71444e-53 1.52623e-53 1.33798e-53 1.15436e-53 9.79578e-54 8.17136e-54 6.69692e-54 5.38974e-54 4.25772e-54 3.30012e-54 2.50883e-54 1.87012e-54 1.3665e-54 9.78592e-55 6.86703e-55 4.72121e-55 3.1799e-55 2.09808e-55 1.35602e-55 8.58503e-56 5.32427e-56 3.23475e-56 1.92536e-56 1.12282e-56 6.41619e-57 3.59308e-57 1.97211e-57 1.06105e-57 5.59683e-58 2.89481e-58 1.46839e-58 7.30605e-59 3.56632e-59 1.70818e-59 8.0298e-60 3.70522e-60 1.6786e-60 7.4677e-61 3.263e-61 1.40063e-61 5.90735e-62 2.44854e-62 9.97588e-63 3.99586e-63 1.57387e-63 6.09687e-64 2.32332e-64 8.71081e-65 3.21391e-65 1.16712e-65 4.17237e-66 1.46863e-66 5.09073e-67 1.7379e-67 5.83966e-68 1.91708e-68 5.68054e-69 0 
0 3.44681e-95 1.84459e-94 9.44675e-94 4.78625e-93 2.40171e-92 1.19355e-91 5.87382e-91 2.86236e-90 1.38106e-89 6.59707e-89 3.1196e-88 1.46021e-87 6.76492e-87 3.1017e-86 1.40729e-85 6.31796e-85 2.80629e-84 1.23313e-83 5.35992e-83 2.30431e-82 9.79734e-82 4.11921e-81 1.71242e-80 7.03803e-80 2.85947e-79 1.14832e-78 4.55756e-78 1.78749e-77 6.92695e-77 2.65201e-76 1.00297e-75 3.74649e-75 1.38206e-74 5.03432e-74 1.81052e-73 6.42771e-73 2.25236e-72 7.78909e-72 2.6579e-71 8.94807e-71 2.97162e-70 9.73334e-70 3.1439e-69 1.00125e-68 3.14352e-68 9.7278e-68 2.96664e-67 8.91439e-67 2.63888e-66 7.69436e-66 2.20938e-65 6.24644e-65 1.73852e-64 4.76243e-64 1.28379e-63 3.4048e-63 8.88251e-63 2.27896e-62 5.7492e-62 1.42579e-61 3.4753e-61 8.32383e-61 1.95865e-60 4.52686e-60 1.02742e-59 2.28939e-59 5.00738e-59 1.0748e-58 2.26344e-58 4.67565e-58 9.47217e-58 1.88146e-57 3.6634e-57 6.99074e-57 1.30713e-56 2.3943e-56 4.29552e-56 7.54648e-56 1.29802e-55 2.1855e-55 3.60144e-55 5.8075e-55 9.16282e-55 1.4143e-54 2.13538e-54 3.15353e-54 4.55489e-54 6.43433e-54 8.8894e-54 1.20116e-53 1.58752e-53 2.05251e-53 2.59641e-53 3.21434e-53 3.89566e-53 4.624e-53 5.37808e-53 6.13323e-53 6.86353e-53 7.54437e-53 8.15504e-53 8.68094e-53 9.11524e-53 9.45947e-53 9.72317e-53 9.92251e-53 1.00781e-52 1.02123e-52 1.03463e-52 1.04981e-52 1.06799e-52 1.08976e-52 1.11504e-52 1.14315e-52 1.17302e-52 1.20329e-52 1.23265e-52 1.25992e-52 1.28427e-52 1.3053e-52 1.32305e-52 1.33791e-52 1.35058e-52 1.36188e-52 1.37265e-52 1.38357e-52 1.39511e-52 1.40744e-52 1.42043e-52 1.43366e-52 1.44643e-52 1.45791e-52 1.46714e-52 1.47314e-52 1.47498e-52 1.4719e-52 1.4633e-52 1.44888e-52 1.42858e-52 1.40267e-52 1.37173e-52 1.33657e-52 1.29826e-52 1.25801e-52 1.21713e-52 1.17699e-52 1.13889e-52 1.10406e-52 1.07357e-52 1.04825e-52 1.02866e-52 1.01508e-52 1.00741e-52 1.00525e-52 1.0079e-52 1.01447e-52 1.02391e-52 1.03518e-52 1.04735e-52 1.05965e-52 1.07157e-52 1.08285e-52 1.09345e-52 1.10352e-52 1.11326e-52 1.12288e-52 1.13251e-52 1.14213e-52 1.1516e-52 1.16066e-52 1.16903e-52 1.17646e-52 1.1829e-52 1.18848e-52 1.19364e-52 1.19905e-52 1.20558e-52 1.21417e-52 1.22566e-52 1.24065e-52 1.25934e-52 1.28143e-52 1.30605e-52 1.3318e-52 1.35683e-52 1.37898e-52 1.39593e-52 1.40543e-52 1.40543e-52 1.3943e-52 1.37087e-52 1.33456e-52 1.28538e-52 1.22394e-52 1.15138e-52 1.06938e-52 9.79958e-53 8.85464e-53 7.88393e-53 6.9127e-53 5.96509e-53 5.06278e-53 4.22392e-53 3.4623e-53 2.7869e-53 2.20186e-53 1.70685e-53 1.29773e-53 9.67434e-54 7.06961e-54 5.06305e-54 3.55302e-54 2.44283e-54 1.64534e-54 1.08558e-54 7.01607e-55 4.44173e-55 2.75453e-55 1.67339e-55 9.95937e-56 5.80748e-56 3.31825e-56 1.85801e-56 1.01967e-56 5.48531e-57 2.89297e-57 1.49608e-57 7.58767e-58 3.77466e-58 1.84222e-58 8.82226e-59 4.14642e-59 1.91296e-59 8.66481e-60 3.85407e-60 1.68372e-60 7.22598e-61 3.04709e-61 1.26276e-61 5.14381e-62 2.05999e-62 8.11232e-63 3.14201e-63 1.19711e-63 4.48756e-64 1.65544e-64 6.01068e-65 2.14843e-65 7.56107e-66 2.6205e-66 8.94468e-67 3.00514e-67 9.86413e-68 2.92254e-68 0 
0 1.74695e-94 9.34855e-94 4.78749e-93 2.4255e-92 1.21705e-91 6.04804e-91 2.97633e-90 1.45035e-89 6.99761e-89 3.34255e-88 1.58058e-87 7.3982e-87 3.42743e-86 1.57145e-85 7.12991e-85 3.20092e-84 1.42178e-83 6.24755e-83 2.7156e-82 1.16749e-81 4.96398e-81 2.08711e-80 8.67672e-80 3.56623e-79 1.44897e-78 5.81907e-78 2.30964e-77 9.05892e-77 3.51074e-76 1.34418e-75 5.08393e-75 1.89918e-74 7.00651e-74 2.5524e-73 9.18013e-73 3.25942e-72 1.14226e-71 3.95054e-71 1.3482e-70 4.53935e-70 1.50768e-69 4.9389e-69 1.59549e-68 5.0819e-68 1.59573e-67 4.93878e-67 1.50638e-66 4.5272e-66 1.34038e-65 3.90888e-65 1.1226e-64 3.17442e-64 8.8367e-64 2.42114e-63 6.52783e-63 1.73162e-62 4.51838e-62 1.15951e-61 2.92573e-61 7.25731e-61 1.76932e-60 4.2387e-60 9.97614e-60 2.30622e-59 5.23544e-59 1.16687e-58 2.55278e-58 5.48062e-58 1.15444e-57 2.38532e-57 4.83342e-57 9.60285e-57 1.8702e-56 3.56963e-56 6.67597e-56 1.22312e-55 2.19481e-55 3.8567e-55 6.63498e-55 1.11735e-54 1.8416e-54 2.97019e-54 4.68701e-54 7.23558e-54 1.09262e-53 1.61379e-53 2.3312e-53 3.29345e-53 4.55051e-53 6.14924e-53 8.12772e-53 1.05088e-52 1.32941e-52 1.64584e-52 1.99471e-52 2.36764e-52 2.75371e-52 3.14028e-52 3.51407e-52 3.86248e-52 4.17488e-52 4.44382e-52 4.6658e-52 4.84161e-52 4.97614e-52 5.07766e-52 5.15672e-52 5.22476e-52 5.2927e-52 5.36963e-52 5.46187e-52 5.57242e-52 5.70087e-52 5.84384e-52 5.99574e-52 6.1498e-52 6.29918e-52 6.43794e-52 6.56188e-52 6.66891e-52 6.75918e-52 6.83478e-52 6.8992e-52 6.95667e-52 7.01139e-52 7.06691e-52 7.12559e-52 7.18833e-52 7.25442e-52 7.3217e-52 7.38674e-52 7.44519e-52 7.49219e-52 7.52275e-52 7.53222e-52 7.51661e-52 7.47296e-52 7.39961e-52 7.29637e-52 7.16461e-52 7.00717e-52 6.82829e-52 6.63332e-52 6.42846e-52 6.22042e-52 6.01608e-52 5.82216e-52 5.64489e-52 5.48967e-52 5.3608e-52 5.26116e-52 5.19207e-52 5.15311e-52 5.14221e-52 5.15584e-52 5.18936e-52 5.23751e-52 5.29499e-52 5.35698e-52 5.41963e-52 5.48029e-52 5.53766e-52 5.59157e-52 5.64272e-52 5.69221e-52 5.74111e-52 5.79005e-52 5.83899e-52 5.88716e-52 5.93327e-52 5.97583e-52 6.01368e-52 6.0464e-52 6.07479e-52 6.10098e-52 6.12845e-52 6.16161e-52 6.20521e-52 6.26359e-52 6.33979e-52 6.43485e-52 6.54721e-52 6.67248e-52 6.80355e-52 6.93098e-52 7.04374e-52 7.13006e-52 7.17844e-52 7.17851e-52 7.12185e-52 7.00253e-52 6.81754e-52 6.56692e-52 6.25372e-52 5.8838e-52 5.46554e-52 5.00933e-52 4.52708e-52 4.0315e-52 3.5355e-52 3.05139e-52 2.59028e-52 2.16147e-52 1.77202e-52 1.42656e-52 1.12725e-52 8.73936e-53 6.6453e-53 4.95442e-53 3.62076e-53 2.59323e-53 1.81989e-53 1.25127e-53 8.42782e-54 5.56051e-54 3.59364e-54 2.27496e-54 1.41072e-54 8.56956e-55 5.09981e-55 2.97348e-55 1.69878e-55 9.51086e-56 5.2188e-56 2.80705e-56 1.48022e-56 7.65362e-57 3.88102e-57 1.93036e-57 9.41943e-58 4.51006e-58 2.11931e-58 9.77559e-59 4.42704e-59 1.96874e-59 8.59913e-60 3.68975e-60 1.55561e-60 6.4454e-61 2.62501e-61 1.05106e-61 4.13835e-62 1.60254e-62 6.10459e-63 2.28798e-63 8.43875e-64 3.06347e-64 1.09481e-64 3.85236e-65 1.33493e-65 4.55586e-66 1.5304e-66 5.02269e-67 1.48794e-67 0 
0 8.76912e-94 4.69247e-93 2.40296e-92 1.21737e-91 6.10825e-91 3.03534e-90 1.49369e-89 7.27846e-89 3.51162e-88 1.67736e-87 7.93157e-87 3.71248e-86 1.7199e-85 7.88557e-85 3.5778e-84 1.60623e-83 7.13456e-83 3.13509e-82 1.36274e-81 5.85882e-81 2.49113e-80 1.04743e-79 4.35459e-79 1.78985e-78 7.27251e-78 2.92078e-77 1.15934e-76 4.54745e-76 1.76245e-75 6.74847e-75 2.55256e-74 9.53623e-74 3.51842e-73 1.28184e-72 4.61075e-72 1.63722e-71 5.73817e-71 1.98478e-70 6.77424e-70 2.28114e-69 7.57739e-69 2.48256e-68 8.02086e-68 2.55514e-67 8.0244e-67 2.48393e-66 7.57746e-66 2.27766e-65 6.74469e-65 1.96726e-64 5.65085e-64 1.59821e-63 4.44983e-63 1.21944e-62 3.28848e-62 8.72507e-62 2.27715e-61 5.84488e-61 1.47514e-60 3.65992e-60 8.92486e-60 2.1386e-59 5.03455e-59 1.16413e-58 2.64337e-58 5.89295e-58 1.28952e-57 2.76918e-57 5.83445e-57 1.20581e-56 2.44395e-56 4.85672e-56 9.46094e-56 1.80623e-55 3.37881e-55 6.19179e-55 1.11133e-54 1.95323e-54 3.361e-54 5.66118e-54 9.33244e-54 1.50544e-53 2.37602e-53 3.66857e-53 5.54062e-53 8.18457e-53 1.18245e-52 1.67071e-52 2.30861e-52 3.11995e-52 4.12404e-52 5.33252e-52 6.74609e-52 8.352e-52 1.01225e-51 1.20149e-51 1.39738e-51 1.59349e-51 1.78309e-51 1.95978e-51 2.11815e-51 2.25444e-51 2.36686e-51 2.45583e-51 2.52382e-51 2.57504e-51 2.61484e-51 2.64901e-51 2.68311e-51 2.72173e-51 2.76809e-51 2.82371e-51 2.88839e-51 2.96042e-51 3.03698e-51 3.11465e-51 3.18997e-51 3.25995e-51 3.32244e-51 3.37641e-51 3.42191e-51 3.46001e-51 3.49247e-51 3.52141e-51 3.54898e-51 3.57695e-51 3.60651e-51 3.63813e-51 3.67145e-51 3.70537e-51 3.73817e-51 3.76767e-51 3.79139e-51 3.80684e-51 3.81165e-51 3.80382e-51 3.78185e-51 3.74491e-51 3.69289e-51 3.62647e-51 3.5471e-51 3.45691e-51 3.3586e-51 3.25529e-51 3.15036e-51 3.0473e-51 2.94949e-51 2.86008e-51 2.7818e-51 2.71681e-51 2.66658e-51 2.63176e-51 2.61215e-51 2.6067e-51 2.61363e-51 2.6306e-51 2.65494e-51 2.68397e-51 2.71527e-51 2.74688e-51 2.77747e-51 2.80639e-51 2.83354e-51 2.8593e-51 2.88422e-51 2.90884e-51 2.93349e-51 2.95815e-51 2.98243e-51 3.00567e-51 3.02714e-51 3.04622e-51 3.06271e-51 3.07701e-51 3.09019e-51 3.10401e-51 3.12068e-51 3.14262e-51 3.17201e-51 3.21039e-51 3.25829e-51 3.31493e-51 3.37809e-51 3.4442e-51 3.50848e-51 3.56537e-51 3.60894e-51 3.63337e-51 3.63343e-51 3.60485e-51 3.54465e-51 3.45127e-51 3.32473e-51 3.16653e-51 2.97964e-51 2.76825e-51 2.53761e-51 2.29372e-51 2.043e-51 1.79198e-51 1.5469e-51 1.31338e-51 1.09614e-51 8.98794e-52 7.23686e-52 5.71927e-52 4.43461e-52 3.3724e-52 2.51453e-52 1.8378e-52 1.31633e-52 9.23813e-53 6.35181e-53 4.27823e-53 2.82265e-53 1.82415e-53 1.15472e-53 7.16006e-54 4.34909e-54 2.58793e-54 1.50874e-54 8.61852e-55 4.82455e-55 2.64694e-55 1.4235e-55 7.50517e-56 3.87995e-56 1.9671e-56 9.78227e-57 4.77246e-57 2.28463e-57 1.07335e-57 4.94997e-58 2.24122e-58 9.96484e-59 4.35158e-59 1.86681e-59 7.8689e-60 3.25968e-60 1.3273e-60 5.31347e-61 2.09165e-61 8.09815e-62 3.08425e-62 1.15575e-62 4.26194e-63 1.5469e-63 5.52724e-64 1.94457e-64 6.73719e-65 2.2989e-65 7.72118e-66 2.53366e-66 7.5049e-67 0 
0 4.35939e-93 2.33268e-92 1.19449e-91 6.05125e-91 3.03615e-90 1.50869e-89 7.42408e-89 3.61753e-88 1.74531e-87 8.33652e-87 3.94195e-86 1.84507e-85 8.54768e-85 3.91903e-84 1.77813e-83 7.98286e-83 3.54587e-82 1.55816e-81 6.77303e-81 2.912e-80 1.23819e-79 5.20632e-79 2.16456e-78 8.89731e-78 3.61532e-77 1.45206e-76 5.76395e-76 2.26102e-75 8.76359e-75 3.35584e-74 1.26942e-73 4.74287e-73 1.75005e-72 6.3764e-72 2.29381e-71 8.14586e-71 2.8553e-70 9.87738e-70 3.37164e-69 1.1355e-68 3.77237e-68 1.2361e-67 3.99427e-67 1.27262e-66 3.99726e-66 1.23754e-65 3.77587e-65 1.13516e-64 3.36209e-64 9.80822e-64 2.81789e-63 7.97132e-63 2.21987e-62 6.08461e-62 1.6412e-61 4.35542e-61 1.13697e-60 2.91899e-60 7.36869e-60 1.82866e-59 4.46032e-59 1.06905e-58 2.51732e-58 5.82221e-58 1.32237e-57 2.94875e-57 6.45424e-57 1.38637e-56 2.92172e-56 6.03989e-56 1.22448e-55 2.43396e-55 4.74257e-55 9.05648e-55 1.69456e-54 3.10608e-54 5.57622e-54 9.8028e-54 1.68718e-53 2.84244e-53 4.68669e-53 7.56168e-53 1.19367e-52 1.84333e-52 2.78441e-52 4.1137e-52 5.94395e-52 8.39931e-52 1.16075e-51 1.56881e-51 2.07385e-51 2.68169e-51 3.39269e-51 4.20041e-51 5.09086e-51 6.04255e-51 7.02757e-51 8.01359e-51 8.96664e-51 9.85454e-51 1.06502e-50 1.13346e-50 1.18988e-50 1.23448e-50 1.26853e-50 1.29412e-50 1.31396e-50 1.33096e-50 1.3479e-50 1.36711e-50 1.39019e-50 1.41791e-50 1.45018e-50 1.48614e-50 1.52438e-50 1.56318e-50 1.60081e-50 1.63577e-50 1.667e-50 1.69396e-50 1.71668e-50 1.73571e-50 1.75191e-50 1.76635e-50 1.78011e-50 1.79407e-50 1.80883e-50 1.82462e-50 1.84126e-50 1.85821e-50 1.87461e-50 1.88935e-50 1.90122e-50 1.90896e-50 1.91138e-50 1.90749e-50 1.89654e-50 1.8781e-50 1.85212e-50 1.81895e-50 1.77931e-50 1.73425e-50 1.68513e-50 1.6335e-50 1.58107e-50 1.52956e-50 1.48068e-50 1.436e-50 1.39688e-50 1.3644e-50 1.33931e-50 1.32192e-50 1.31214e-50 1.30945e-50 1.31294e-50 1.32145e-50 1.33364e-50 1.34818e-50 1.36383e-50 1.37964e-50 1.39492e-50 1.40936e-50 1.42291e-50 1.43576e-50 1.44819e-50 1.46048e-50 1.47278e-50 1.48509e-50 1.49722e-50 1.50883e-50 1.51955e-50 1.52908e-50 1.53732e-50 1.54446e-50 1.55103e-50 1.55791e-50 1.56622e-50 1.57716e-50 1.59181e-50 1.61097e-50 1.63489e-50 1.66318e-50 1.69474e-50 1.72777e-50 1.75991e-50 1.78835e-50 1.81015e-50 1.82237e-50 1.82242e-50 1.80814e-50 1.77805e-50 1.73135e-50 1.66803e-50 1.58887e-50 1.4953e-50 1.38944e-50 1.2739e-50 1.15167e-50 1.02598e-50 9.00095e-51 7.77141e-51 6.59948e-51 5.50891e-51 4.51786e-51 3.63825e-51 2.87571e-51 2.23006e-51 1.69609e-51 1.26476e-51 9.24445e-52 6.62175e-52 4.64738e-52 3.19543e-52 2.15226e-52 1.41997e-52 9.17628e-53 5.80843e-53 3.60135e-53 2.1873e-53 1.30142e-53 7.58626e-54 4.333e-54 2.42521e-54 1.33036e-54 7.15336e-55 3.77084e-55 1.94906e-55 9.87968e-56 4.91213e-56 2.39599e-56 1.14675e-56 5.38646e-57 2.48355e-57 1.12424e-57 4.9975e-58 2.1819e-58 9.35824e-59 3.94379e-59 1.63336e-59 6.64939e-60 2.66134e-60 1.04742e-60 4.0544e-61 1.54384e-61 5.78399e-62 2.13249e-62 7.73852e-63 2.76453e-63 9.72424e-64 3.36848e-64 1.14921e-64 3.85912e-65 1.26615e-65 3.74992e-66 0 
0 2.14613e-92 1.14834e-91 5.88005e-91 2.97872e-90 1.49449e-89 7.4261e-89 3.6542e-88 1.78055e-87 8.59027e-87 4.10312e-86 1.94016e-85 9.08105e-85 4.20699e-84 1.92887e-83 8.75167e-83 3.92909e-82 1.74527e-81 7.66939e-81 3.33382e-80 1.43338e-79 6.09501e-79 2.56291e-78 1.06559e-77 4.38026e-77 1.77996e-76 7.14944e-76 2.83815e-75 1.11339e-74 4.31577e-74 1.65276e-73 6.25247e-73 2.33629e-72 8.62136e-72 3.14155e-71 1.13024e-70 4.01421e-70 1.40723e-69 4.86866e-69 1.66213e-68 5.59847e-68 1.86019e-67 6.09621e-67 1.9702e-66 6.27828e-66 1.97232e-65 6.1073e-65 1.86373e-64 5.60408e-64 1.66011e-63 4.84399e-63 1.39195e-62 3.93841e-62 1.09701e-61 3.00754e-61 8.11404e-61 2.1538e-60 5.62375e-60 1.44415e-59 3.64651e-59 9.05162e-59 2.20836e-58 5.29436e-58 1.247e-57 2.88489e-57 6.55405e-57 1.46187e-56 3.20062e-56 6.87675e-56 1.44964e-55 2.99756e-55 6.07867e-55 1.2086e-54 2.35559e-54 4.49943e-54 8.42104e-54 1.54394e-53 2.77246e-53 4.87505e-53 8.39245e-53 1.41422e-52 2.3323e-52 3.76377e-52 5.94251e-52 9.17843e-52 1.38666e-51 2.04896e-51 2.96098e-51 4.18462e-51 5.78356e-51 7.81748e-51 1.03348e-50 1.33647e-50 1.69087e-50 2.09348e-50 2.53729e-50 3.01158e-50 3.50242e-50 3.99367e-50 4.46841e-50 4.91056e-50 5.30663e-50 5.64715e-50 5.92767e-50 6.14924e-50 6.31811e-50 6.44481e-50 6.54276e-50 6.62649e-50 6.70986e-50 6.80444e-50 6.91826e-50 7.05514e-50 7.21462e-50 7.39246e-50 7.58167e-50 7.77372e-50 7.96001e-50 8.1331e-50 8.28767e-50 8.4211e-50 8.53356e-50 8.62767e-50 8.70779e-50 8.77922e-50 8.84724e-50 8.91626e-50 8.98927e-50 9.06739e-50 9.14975e-50 9.23367e-50 9.31486e-50 9.38791e-50 9.44673e-50 9.48513e-50 9.49724e-50 9.4781e-50 9.42399e-50 9.33282e-50 9.20433e-50 9.04019e-50 8.84397e-50 8.62093e-50 8.37774e-50 8.12215e-50 7.86253e-50 7.60749e-50 7.36545e-50 7.14418e-50 6.95048e-50 6.78971e-50 6.66551e-50 6.57951e-50 6.5312e-50 6.518e-50 6.53546e-50 6.57774e-50 6.63825e-50 6.71032e-50 6.78792e-50 6.86619e-50 6.94186e-50 7.01328e-50 7.0803e-50 7.14381e-50 7.20524e-50 7.26597e-50 7.32679e-50 7.38767e-50 7.44767e-50 7.50515e-50 7.55823e-50 7.60542e-50 7.64617e-50 7.68145e-50 7.71391e-50 7.74789e-50 7.7889e-50 7.8429e-50 7.91534e-50 8.01007e-50 8.12838e-50 8.26839e-50 8.42463e-50 8.58823e-50 8.7474e-50 8.88835e-50 8.99637e-50 9.05704e-50 9.05736e-50 8.98673e-50 8.83765e-50 8.60625e-50 8.29243e-50 7.89987e-50 7.43577e-50 6.9105e-50 6.33697e-50 5.73005e-50 5.10569e-50 4.48011e-50 3.86889e-50 3.28609e-50 2.74358e-50 2.2504e-50 1.81255e-50 1.43288e-50 1.11131e-50 8.45315e-51 6.30405e-51 4.60813e-51 3.30096e-51 2.31681e-51 1.59301e-51 1.07296e-51 7.07872e-52 4.57429e-52 2.89527e-52 1.79499e-52 1.09009e-52 6.48516e-53 3.77987e-53 2.15862e-53 1.20801e-53 6.6255e-54 3.56191e-54 1.87729e-54 9.70137e-55 4.9166e-55 2.444e-55 1.19186e-55 5.70313e-56 2.67826e-56 1.23459e-56 5.58745e-57 2.48318e-57 1.0839e-57 4.64783e-58 1.95826e-58 8.1085e-59 3.30022e-59 1.32058e-59 5.19623e-60 2.01094e-60 7.65564e-61 2.86758e-61 1.05702e-61 3.83502e-62 1.36976e-62 4.8172e-63 1.66836e-63 5.69081e-64 1.91068e-64 6.26772e-65 1.85604e-65 0 
0 1.04618e-91 5.59766e-91 2.86619e-90 1.45191e-89 7.28439e-89 3.61951e-88 1.78104e-87 8.67816e-87 4.18674e-86 1.99977e-85 9.45584e-85 4.42587e-84 2.05039e-83 9.40095e-83 4.26544e-82 1.91501e-81 8.50649e-81 3.73817e-80 1.625e-79 6.98695e-79 2.9711e-78 1.24938e-77 5.19485e-77 2.13552e-76 8.6784e-76 3.48602e-75 1.38396e-74 5.42959e-74 2.1048e-73 8.06121e-73 3.04986e-72 1.13971e-71 4.20619e-71 1.53287e-70 5.51545e-70 1.95912e-69 6.8688e-69 2.37673e-68 8.11514e-68 2.73377e-67 9.08479e-67 2.97773e-66 9.62514e-66 3.06767e-65 9.63877e-65 2.98519e-64 9.11145e-64 2.74027e-63 8.11918e-63 2.36956e-62 6.81054e-62 1.9274e-61 5.36982e-61 1.47251e-60 3.97364e-60 1.05502e-59 2.75543e-59 7.07759e-59 1.78756e-58 4.43836e-58 1.08313e-57 2.59742e-57 6.11945e-57 1.41611e-56 3.21808e-56 7.1799e-56 1.57241e-55 3.37938e-55 7.12585e-55 1.4739e-54 2.98971e-54 5.94602e-54 1.15921e-53 2.21482e-53 4.14633e-53 7.60404e-53 1.36581e-52 2.40221e-52 4.13644e-52 6.97196e-52 1.15006e-51 1.85631e-51 2.93147e-51 4.5286e-51 6.8429e-51 1.01129e-50 1.46163e-50 2.06591e-50 2.85561e-50 3.8602e-50 5.10362e-50 6.60022e-50 8.35079e-50 1.03394e-49 1.25313e-49 1.48736e-49 1.72972e-49 1.97225e-49 2.20657e-49 2.42474e-49 2.62009e-49 2.78795e-49 2.92614e-49 3.03517e-49 3.11814e-49 3.18025e-49 3.22813e-49 3.26896e-49 3.30959e-49 3.35571e-49 3.4113e-49 3.47824e-49 3.55633e-49 3.64347e-49 3.73622e-49 3.83039e-49 3.92176e-49 4.00665e-49 4.08245e-49 4.14788e-49 4.20302e-49 4.24914e-49 4.28839e-49 4.32338e-49 4.35669e-49 4.3905e-49 4.42628e-49 4.46457e-49 4.50496e-49 4.54612e-49 4.58595e-49 4.62181e-49 4.6507e-49 4.66958e-49 4.67558e-49 4.66625e-49 4.63977e-49 4.59511e-49 4.53214e-49 4.45167e-49 4.35546e-49 4.24607e-49 4.12679e-49 4.00142e-49 3.87407e-49 3.74895e-49 3.63021e-49 3.52166e-49 3.42664e-49 3.34778e-49 3.28688e-49 3.24474e-49 3.2211e-49 3.21469e-49 3.22333e-49 3.24415e-49 3.27391e-49 3.30932e-49 3.34743e-49 3.38584e-49 3.42294e-49 3.45795e-49 3.49077e-49 3.52187e-49 3.55195e-49 3.58168e-49 3.61147e-49 3.6413e-49 3.67072e-49 3.6989e-49 3.72493e-49 3.74807e-49 3.76805e-49 3.78533e-49 3.80121e-49 3.81782e-49 3.83787e-49 3.86429e-49 3.89976e-49 3.94616e-49 4.00415e-49 4.07281e-49 4.14944e-49 4.22971e-49 4.30783e-49 4.37703e-49 4.43009e-49 4.45992e-49 4.46014e-49 4.42552e-49 4.35238e-49 4.2388e-49 4.08469e-49 3.89184e-49 3.66377e-49 3.40554e-49 3.12348e-49 2.82488e-49 2.51759e-49 2.20957e-49 1.90851e-49 1.62134e-49 1.35392e-49 1.11075e-49 8.94786e-50 7.07462e-50 5.48769e-50 4.17467e-50 3.11361e-50 2.27616e-50 1.63058e-50 1.14448e-50 7.86936e-51 5.30028e-51 3.4967e-51 2.25947e-51 1.43002e-51 8.86494e-52 5.38308e-52 3.20212e-52 1.8661e-52 1.06554e-52 5.96202e-53 3.26938e-53 1.75731e-53 9.26e-54 4.78437e-54 2.42417e-54 1.20477e-54 5.87395e-55 2.81009e-55 1.31934e-55 6.08032e-56 2.75114e-56 1.22237e-56 5.33436e-57 2.28685e-57 9.63283e-58 3.98767e-58 1.62263e-58 6.4914e-59 2.55365e-59 9.88038e-60 3.7606e-60 1.4083e-60 5.19003e-61 1.88261e-61 6.72274e-62 2.36378e-62 8.18494e-63 2.79135e-63 9.37014e-64 3.0732e-64 9.09922e-65 0 
0 5.04946e-91 2.70166e-90 1.3833e-89 7.00712e-89 3.51547e-88 1.74675e-87 8.59505e-87 4.18791e-86 2.02042e-85 9.65035e-85 4.56314e-84 2.13582e-83 9.89475e-83 4.53675e-82 2.05847e-81 9.24187e-81 4.10535e-80 1.80415e-79 7.84297e-79 3.37234e-78 1.4341e-77 6.03084e-77 2.50772e-76 1.03095e-75 4.18986e-75 1.68313e-74 6.68257e-74 2.62194e-73 1.01649e-72 3.89343e-72 1.47317e-71 5.50572e-71 2.03215e-70 7.40661e-70 2.66531e-69 9.46853e-69 3.32017e-68 1.149e-67 3.92373e-67 1.322e-66 4.39392e-66 1.44044e-65 4.65683e-65 1.48446e-64 4.66511e-64 1.44509e-63 4.4116e-63 1.32706e-62 3.93279e-62 1.14802e-61 3.30036e-61 9.34226e-61 2.6034e-60 7.14079e-60 1.92745e-59 5.11876e-59 1.33723e-58 3.43571e-58 8.67978e-58 2.15571e-57 5.26222e-57 1.26227e-56 2.97473e-56 6.88582e-56 1.56525e-55 3.49328e-55 7.65257e-55 1.64516e-54 3.47006e-54 7.17954e-54 1.45676e-53 2.89809e-53 5.65162e-53 1.08013e-52 2.02266e-52 3.71042e-52 6.66631e-52 1.1728e-51 2.01998e-51 3.40551e-51 5.61887e-51 9.07145e-51 1.43285e-50 2.21394e-50 3.34596e-50 4.94567e-50 7.14912e-50 1.01061e-49 1.39708e-49 1.88875e-49 2.49733e-49 3.22984e-49 4.08665e-49 5.05991e-49 6.13262e-49 7.27877e-49 8.46458e-49 9.65093e-49 1.07968e-48 1.18634e-48 1.28181e-48 1.36379e-48 1.43122e-48 1.48437e-48 1.52474e-48 1.55489e-48 1.57807e-48 1.59778e-48 1.61738e-48 1.63965e-48 1.66653e-48 1.69896e-48 1.73683e-48 1.77913e-48 1.82417e-48 1.86992e-48 1.91431e-48 1.95555e-48 1.99238e-48 2.02417e-48 2.05094e-48 2.07333e-48 2.09238e-48 2.10936e-48 2.12552e-48 2.14193e-48 2.15929e-48 2.17789e-48 2.1975e-48 2.21751e-48 2.23687e-48 2.25431e-48 2.26837e-48 2.27757e-48 2.28051e-48 2.27601e-48 2.26317e-48 2.2415e-48 2.21092e-48 2.17185e-48 2.12511e-48 2.07197e-48 2.01401e-48 1.95308e-48 1.89119e-48 1.83039e-48 1.77268e-48 1.71992e-48 1.67374e-48 1.63543e-48 1.60585e-48 1.58539e-48 1.57393e-48 1.57085e-48 1.57509e-48 1.58525e-48 1.59975e-48 1.61698e-48 1.63552e-48 1.65419e-48 1.67222e-48 1.68921e-48 1.70514e-48 1.72022e-48 1.7348e-48 1.74922e-48 1.76368e-48 1.77816e-48 1.79244e-48 1.80614e-48 1.81878e-48 1.83002e-48 1.83972e-48 1.84811e-48 1.85581e-48 1.86385e-48 1.87356e-48 1.88636e-48 1.90356e-48 1.92608e-48 1.95424e-48 1.98759e-48 2.02484e-48 2.06386e-48 2.10184e-48 2.1355e-48 2.16133e-48 2.17586e-48 2.176e-48 2.1592e-48 2.12366e-48 2.06843e-48 1.99346e-48 1.89961e-48 1.78857e-48 1.66281e-48 1.52538e-48 1.37984e-48 1.22999e-48 1.07974e-48 9.32814e-49 7.9262e-49 6.6202e-49 5.43217e-49 4.37675e-49 3.46101e-49 2.68503e-49 2.04283e-49 1.52376e-49 1.11401e-49 7.98087e-50 5.60181e-50 3.85181e-50 2.59429e-50 1.71145e-50 1.10583e-50 6.99826e-51 4.33794e-51 2.63384e-51 1.56654e-51 9.12798e-52 5.21122e-52 2.91533e-52 1.59838e-52 8.58967e-53 4.52532e-53 2.33759e-53 1.18416e-53 5.88372e-54 2.86797e-54 1.3717e-54 6.43857e-55 2.96655e-55 1.34193e-55 5.96086e-56 2.60063e-56 1.11461e-56 4.69387e-57 1.94262e-57 7.90277e-58 3.16076e-58 1.24311e-58 4.80857e-59 1.82977e-59 6.85068e-60 2.52411e-60 9.15379e-61 3.26807e-61 1.14884e-61 3.97719e-62 1.35608e-62 4.55126e-63 1.49243e-63 4.41815e-64 0 