# vtk DataFile Version 3.0
Gray-Scott Simulation Output
ASCII
DATASET STRUCTURED_POINTS
DIMENSIONS 256 256 1
SPACING 1.0 1.0 1.0
ORIGIN 0 0 0
POINT_DATA 65536
SCALARS u double
LOOKUP_TABLE default
0 0 0 0 0 0 0 0 0 0 0 0 0 0 0 0 0 0 0 0 0 0 0 0 0 0 0 0 0 0 0 0 0 0 0 0 0 0 0 0 0 0 0 0 0 0 0 0 0 0 0 0 0 0 0 0 0 0 0 0 0 0 0 0 0 0 0 0 0 0 0 0 0 0 0 0 0 0 0 0 0 0 0 0 0 0 0 0 0 0 0 0 0 0 0 0 0 0 0 0 0 0 0 0 0 0 0 0 0 0 0 0 0 0 0 0 0 0 0 0 0 0 0 0 0 0 0 0 0 0 0 0 0 0 0 0 0 0 0 0 0 0 0 0 0 0 0 0 0 0 0 0 0 0 0 0 0 0 0 0 0 0 0 0 0 0 0 0 0 0 0 0 0 0 0 0 0 0 0 0 0 0 0 0 0 0 0 0 0 0 0 0 0 0 0 0 0 0 0 0 0 0 0 0 0 0 0 0 0 0 0 0 0 0 0 0 0 0 0 0 0 0 0 0 0 0 0 0 0 0 0 0 0 0 0 0 0 0 0 0 0 0 0 0 0 0 0 0 0 0 0 0 0 0 0 0 
0 2.93922e-138 3.1449e-137 3.30208e-136 3.4308e-135 3.52712e-134 3.58771e-133 3.6103e-132 3.59378e-131 3.53831e-130 3.44531e-129 3.31744e-128 3.1584e-127 2.97286e-126 2.76611e-125 2.54391e-124 2.31216e-123 2.07664e-122 1.8428e-121 1.61551e-120 1.39894e-119 1.19642e-118 1.01042e-117 8.42553e-117 6.93584e-116 5.63565e-115 4.51924e-114 3.57596e-113 2.79162e-112 2.14973e-111 1.63269e-110 1.22274e-109 9.02826e-109 6.57097e-108 4.71334e-107 3.33134e-106 2.31959e-105 1.59082e-104 1.07437e-103 7.14361e-103 4.67537e-102 3.01127e-101 1.90817e-100 1.18936e-99 7.29003e-99 4.39296e-98 2.60184e-97 1.5142e-96 8.65647e-96 4.85995e-95 2.67871e-94 1.44907e-93 7.69108e-93 4.00383e-92 2.04366e-91 1.02244e-90 5.01187e-90 2.40625e-89 1.13107e-88 5.20328e-88 2.34165e-87 1.03048e-86 4.4324e-86 1.86261e-85 7.64335e-85 3.06134e-84 1.19615e-83 4.55699e-83 1.69181e-82 6.11734e-82 2.15306e-81 7.37177e-81 2.45378e-80 7.93538e-80 2.49159e-79 7.59035e-79 2.24188e-78 6.41517e-78 1.77714e-77 4.76223e-77 1.23347e-76 3.08549e-76 7.44787e-76 1.73335e-75 3.88615e-75 8.38605e-75 1.74034e-74 3.47044e-74 6.64449e-74 1.22048e-73 2.14921e-73 3.62601e-73 5.858e-73 9.05849e-73 1.34041e-72 1.89786e-72 2.57164e-72 3.33634e-72 4.14744e-72 4.94593e-72 5.66725e-72 6.25288e-72 6.66133e-72 6.87569e-72 6.90605e-72 6.78665e-72 6.56931e-72 6.3151e-72 6.08597e-72 5.93729e-72 5.9115e-72 6.03312e-72 6.30533e-72 6.7091e-72 7.20546e-72 7.74156e-72 8.25948e-72 8.70655e-72 9.04452e-72 9.25575e-72 9.34472e-72 9.33515e-72 9.26358e-72 9.17126e-72 9.09641e-72 9.06813e-72 9.1029e-72 9.20404e-72 9.36358e-72 9.56604e-72 9.79284e-72 1.0026e-71 1.02503e-71 1.04527e-71 1.06212e-71 1.07423e-71 1.08008e-71 1.07807e-71 1.06693e-71 1.04606e-71 1.01588e-71 9.77819e-72 9.34102e-72 8.87263e-72 8.39671e-72 7.93174e-72 7.48998e-72 7.07899e-72 6.70488e-72 6.37577e-72 6.10361e-72 5.90339e-72 5.78955e-72 5.77078e-72 5.84526e-72 5.99846e-72 6.20459e-72 6.43152e-72 6.64745e-72 6.82719e-72 6.95626e-72 7.03199e-72 7.06213e-72 7.06208e-72 7.05162e-72 7.05175e-72 7.0814e-72 7.15408e-72 7.27451e-72 7.43631e-72 7.62164e-72 7.80368e-72 7.95203e-72 8.03968e-72 8.05015e-72 7.98262e-72 7.85398e-72 7.6969e-72 7.55466e-72 7.47343e-72 7.49394e-72 7.64378e-72 7.93185e-72 8.34597e-72 8.8537e-72 9.40674e-72 9.94776e-72 1.04188e-71 1.07697e-71 1.09639e-71 1.09821e-71 1.0821e-71 1.04895e-71 1.00039e-71 9.38332e-72 8.64786e-72 7.81881e-72 6.92054e-72 5.98209e-72 5.03712e-72 4.12167e-72 3.27014e-72 2.51089e-72 1.86279e-72 1.33354e-72 9.20257e-73 6.11685e-73 3.91396e-73 2.40996e-73 1.42764e-73 8.13609e-74 4.46105e-74 2.3538e-74 1.19548e-74 5.84688e-75 2.75498e-75 1.25127e-75 5.48115e-76 2.3171e-76 9.4591e-77 3.73139e-77 1.4233e-77 5.2532e-78 1.87734e-78 6.50052e-79 2.18236e-79 7.10827e-80 2.2477e-80 6.90439e-81 2.06153e-81 5.98679e-82 1.69197e-82 4.65616e-83 1.24837e-83 3.26264e-84 8.31631e-85 2.06846e-85 5.02259e-86 1.19119e-86 2.76057e-87 6.2543e-88 1.38581e-88 3.00438e-89 6.37535e-90 1.32471e-90 2.6963e-91 5.37781e-92 1.05144e-92 2.01582e-93 3.79099e-94 6.99563e-95 1.26709e-95 2.2533e-96 3.93257e-97 6.5642e-98 0 
0 3.14541e-137 3.3642e-136 3.53096e-135 3.66716e-134 3.76864e-133 3.83189e-132 3.85451e-131 3.83539e-130 3.77473e-129 3.67411e-128 3.53638e-127 3.36556e-126 3.16663e-125 2.94529e-124 2.70767e-123 2.46006e-122 2.20865e-121 1.95921e-120 1.71692e-119 1.4862e-118 1.27058e-117 1.07266e-116 8.94117e-116 7.35762e-115 5.97618e-114 4.79057e-113 3.78929e-112 2.9571e-111 2.27635e-110 1.72823e-109 1.29384e-108 9.54985e-108 6.94815e-107 4.98216e-106 3.52012e-105 2.4502e-104 1.67982e-103 1.13409e-102 7.53815e-102 4.93194e-101 3.17546e-100 2.01155e-99 1.25338e-98 7.67998e-98 4.62645e-97 2.73926e-96 1.59367e-95 9.10793e-95 5.11182e-94 2.81667e-93 1.52324e-92 8.0823e-92 4.20624e-91 2.14634e-90 1.07349e-89 5.26065e-89 2.52497e-88 1.18655e-87 5.45697e-87 2.45515e-86 1.08014e-85 4.64477e-85 1.95135e-84 8.00545e-84 3.20557e-83 1.2522e-82 4.76935e-82 1.77023e-81 6.39943e-81 2.25184e-80 7.70826e-80 2.56523e-79 8.29407e-79 2.60368e-78 7.93025e-78 2.34182e-77 6.69991e-77 1.85568e-76 4.97184e-76 1.28755e-75 3.22025e-75 7.77196e-75 1.80852e-74 4.05409e-74 8.74732e-74 1.81509e-73 3.61909e-73 6.92836e-73 1.27249e-72 2.24061e-72 3.77993e-72 6.10625e-72 9.44185e-72 1.39707e-71 1.97803e-71 2.68022e-71 3.47719e-71 4.32259e-71 5.15493e-71 5.90701e-71 6.51785e-71 6.94421e-71 7.16844e-71 7.20102e-71 7.07755e-71 6.85196e-71 6.58783e-71 6.34964e-71 6.19504e-71 6.16821e-71 6.29469e-71 6.57783e-71 6.99782e-71 7.51418e-71 8.07191e-71 8.61079e-71 9.07602e-71 9.42783e-71 9.64783e-71 9.7407e-71 9.73109e-71 9.65696e-71 9.56121e-71 9.48358e-71 9.45431e-71 9.49056e-71 9.59576e-71 9.76165e-71 9.97212e-71 1.02079e-70 1.04503e-70 1.06834e-70 1.08938e-70 1.10689e-70 1.11948e-70 1.12556e-70 1.12347e-70 1.11188e-70 1.09018e-70 1.05879e-70 1.0192e-70 9.73721e-71 9.24984e-71 8.75452e-71 8.27047e-71 7.81047e-71 7.38238e-71 6.99262e-71 6.64965e-71 6.36596e-71 6.15719e-71 6.03841e-71 6.0187e-71 6.09621e-71 6.25581e-71 6.47065e-71 6.70722e-71 6.9324e-71 7.11992e-71 7.25467e-71 7.33382e-71 7.36544e-71 7.36554e-71 7.35474e-71 7.35489e-71 7.38573e-71 7.46131e-71 7.5866e-71 7.75494e-71 7.94777e-71 8.13724e-71 8.29169e-71 8.38304e-71 8.3941e-71 8.32405e-71 8.19041e-71 8.02718e-71 7.87934e-71 7.79493e-71 7.81629e-71 7.97211e-71 8.27166e-71 8.70225e-71 9.23019e-71 9.80521e-71 1.03677e-70 1.08575e-70 1.12223e-70 1.14242e-70 1.14431e-70 1.12754e-70 1.09304e-70 1.04249e-70 9.77894e-71 9.01319e-71 8.14981e-71 7.21416e-71 6.23648e-71 5.25184e-71 4.2978e-71 3.41024e-71 2.61875e-71 1.94302e-71 1.39113e-71 9.60101e-72 6.38241e-72 4.08434e-72 2.51515e-72 1.49012e-72 8.49312e-73 4.65735e-73 2.45766e-73 1.24838e-73 6.10635e-74 2.8776e-74 1.30713e-74 5.72663e-75 2.42122e-75 9.88556e-76 3.9002e-76 1.48792e-76 5.49259e-77 1.96322e-77 6.79906e-78 2.28299e-78 7.4374e-79 2.35222e-79 7.22685e-80 2.15825e-80 6.26894e-81 1.77208e-81 4.87768e-82 1.30805e-82 3.41939e-83 8.71789e-84 2.16885e-84 5.26764e-85 1.24961e-85 2.89669e-86 6.56437e-87 1.45489e-87 3.15497e-88 6.6967e-89 1.39186e-89 2.83376e-90 5.65355e-91 1.10566e-91 2.12039e-92 3.9888e-93 7.36282e-94 1.334e-94 2.37299e-95 4.14271e-96 6.91697e-97 0 
0 3.30317e-136 3.53155e-135 3.70512e-134 3.84651e-133 3.95139e-132 4.01611e-131 4.03823e-130 4.01661e-129 3.95153e-128 3.84469e-127 3.69913e-126 3.51908e-125 3.3098e-124 3.07726e-123 2.8279e-122 2.56832e-121 2.30496e-120 2.04386e-119 1.79043e-118 1.54924e-117 1.32398e-116 1.11732e-115 9.30999e-115 7.65828e-114 6.21809e-113 4.98265e-112 3.93979e-111 3.07342e-110 2.36504e-109 1.79492e-108 1.34328e-107 9.91126e-107 7.20855e-106 5.16706e-105 3.64948e-104 2.53936e-103 1.74034e-102 1.17455e-101 7.80441e-101 5.10441e-100 3.2854e-99 2.0805e-98 1.29592e-97 7.938e-97 4.78033e-96 2.82945e-95 1.64561e-94 9.40185e-94 5.27513e-93 2.90576e-92 1.57093e-91 8.33283e-91 4.33532e-90 2.21155e-89 1.10579e-88 5.41733e-88 2.59943e-87 1.22119e-86 5.61475e-86 2.52545e-85 1.11077e-84 4.77521e-84 2.00563e-83 8.22603e-83 3.29306e-82 1.28606e-81 4.89715e-81 1.81724e-80 6.56782e-80 2.31057e-79 7.90757e-79 2.631e-78 8.50492e-78 2.66933e-77 8.12859e-77 2.39993e-76 6.8649e-76 1.90104e-75 5.09249e-75 1.31858e-74 3.29732e-74 7.95678e-74 1.85126e-73 4.14934e-73 8.95167e-73 1.85727e-72 3.70278e-72 7.08783e-72 1.30166e-71 2.29177e-71 3.86594e-71 6.24478e-71 9.65554e-71 1.42863e-70 2.02265e-70 2.74064e-70 3.55556e-70 4.42007e-70 5.27135e-70 6.04071e-70 6.66583e-70 7.10249e-70 7.33265e-70 7.36694e-70 7.24171e-70 7.01202e-70 6.74279e-70 6.49988e-70 6.34215e-70 6.31477e-70 6.44381e-70 6.73273e-70 7.16132e-70 7.68829e-70 8.25753e-70 8.8076e-70 9.28255e-70 9.64183e-70 9.86665e-70 9.96176e-70 9.95229e-70 9.87698e-70 9.77957e-70 9.70058e-70 9.67088e-70 9.70795e-70 9.8153e-70 9.98451e-70 1.01992e-69 1.04396e-69 1.06868e-69 1.09244e-69 1.1139e-69 1.13176e-69 1.1446e-69 1.15079e-69 1.14866e-69 1.13684e-69 1.11469e-69 1.08267e-69 1.04227e-69 9.95857e-70 9.46106e-70 8.95531e-70 8.46095e-70 7.99101e-70 7.55356e-70 7.15517e-70 6.80451e-70 6.51439e-70 6.30082e-70 6.17923e-70 6.15893e-70 6.23806e-70 6.40119e-70 6.62086e-70 6.86284e-70 7.09323e-70 7.28518e-70 7.42319e-70 7.50436e-70 7.5369e-70 7.53717e-70 7.52622e-70 7.5264e-70 7.55786e-70 7.63498e-70 7.76283e-70 7.93465e-70 8.13151e-70 8.32497e-70 8.48273e-70 8.57612e-70 8.5876e-70 8.51631e-70 8.38011e-70 8.2137e-70 8.06296e-70 7.97691e-70 7.99873e-70 8.1577e-70 8.46328e-70 8.90251e-70 9.44103e-70 1.00276e-69 1.06013e-69 1.11009e-69 1.1473e-69 1.16789e-69 1.16981e-69 1.15268e-69 1.11746e-69 1.06585e-69 9.99877e-70 9.21656e-70 8.33444e-70 7.37829e-70 6.37899e-70 5.3724e-70 4.39692e-70 3.48926e-70 2.67973e-70 1.98849e-70 1.42384e-70 9.82791e-71 6.53398e-71 4.18181e-71 2.57546e-71 1.52602e-71 8.69877e-72 4.77067e-72 2.51775e-72 1.27905e-72 6.25716e-73 2.94903e-73 1.33975e-73 5.87033e-74 2.48232e-74 1.01365e-74 3.99978e-75 1.52615e-75 5.63459e-76 2.01431e-76 6.97717e-77 2.34321e-77 7.63498e-78 2.41516e-78 7.42166e-79 2.21687e-79 6.44053e-80 1.82097e-80 5.01332e-81 1.34472e-81 3.51605e-82 8.96641e-83 2.23121e-83 5.42039e-84 1.28616e-84 2.98218e-85 6.75981e-86 1.4986e-86 3.25061e-87 6.90156e-88 1.43483e-88 2.92206e-89 5.83134e-90 1.14076e-90 2.18832e-91 4.1178e-92 7.60319e-93 1.37796e-93 2.45194e-94 4.28184e-95 7.15136e-96 0 
0 3.43252e-135 3.66841e-134 3.84717e-133 3.9924e-132 4.09963e-131 4.16514e-130 4.18643e-129 4.16238e-128 4.09334e-127 3.98112e-126 3.8289e-125 3.64112e-124 3.42326e-123 3.18152e-122 2.92259e-121 2.65331e-120 2.38033e-119 2.10989e-118 1.84757e-117 1.59809e-116 1.36521e-115 1.15169e-114 9.59278e-114 7.88798e-113 6.40224e-112 5.12834e-111 4.0535e-110 3.16098e-109 2.43154e-108 1.84473e-107 1.38007e-106 1.01791e-105 7.40071e-105 5.30294e-104 3.74414e-103 2.60433e-102 1.78425e-101 1.20377e-100 7.99589e-100 5.22789e-99 3.36376e-98 2.12941e-97 1.32595e-96 8.11932e-96 4.88794e-95 2.89222e-94 1.68159e-93 9.60437e-93 5.38709e-92 2.96651e-91 1.60329e-90 8.50192e-90 4.42198e-89 2.2551e-88 1.12723e-87 5.52081e-87 2.64834e-86 1.24383e-85 5.71724e-85 2.57085e-84 1.13044e-83 4.85851e-83 2.04009e-82 8.36526e-82 3.34798e-81 1.30719e-80 4.97642e-80 1.84623e-79 6.67109e-79 2.34638e-78 8.02839e-78 2.67063e-77 8.63129e-77 2.70845e-76 8.24614e-76 2.43419e-75 6.96162e-75 1.92749e-74 5.16248e-74 1.33648e-73 3.34159e-73 8.06243e-73 1.87557e-72 4.20329e-72 9.06695e-72 1.88097e-71 3.74962e-71 7.17678e-71 1.31788e-70 2.32013e-70 3.9135e-70 6.32122e-70 9.77322e-70 1.44599e-69 2.04716e-69 2.77381e-69 3.5986e-69 4.47364e-69 5.33541e-69 6.11442e-69 6.74764e-69 7.19032e-69 7.42415e-69 7.45986e-69 7.33416e-69 7.10269e-69 6.83107e-69 6.58588e-69 6.42662e-69 6.39895e-69 6.52926e-69 6.82104e-69 7.25393e-69 7.78623e-69 8.36126e-69 8.91699e-69 9.39691e-69 9.76006e-69 9.98744e-69 1.00838e-68 1.00746e-68 9.9989e-69 9.90081e-69 9.82128e-69 9.79144e-69 9.82897e-69 9.93739e-69 1.01082e-68 1.03249e-68 1.05676e-68 1.0817e-68 1.10569e-68 1.12734e-68 1.14536e-68 1.15832e-68 1.16457e-68 1.16242e-68 1.15048e-68 1.12813e-68 1.09578e-68 1.05499e-68 1.0081e-68 9.57835e-69 9.06724e-69 8.56752e-69 8.09236e-69 7.64992e-69 7.24687e-69 6.89203e-69 6.59836e-69 6.3821e-69 6.25891e-69 6.23822e-69 6.31819e-69 6.48321e-69 6.70553e-69 6.95051e-69 7.18384e-69 7.37831e-69 7.51822e-69 7.6006e-69 7.63375e-69 7.63418e-69 7.6232e-69 7.62339e-69 7.65516e-69 7.73303e-69 7.86217e-69 8.03575e-69 8.23465e-69 8.43017e-69 8.58966e-69 8.68416e-69 8.69595e-69 8.62414e-69 8.48677e-69 8.31886e-69 8.16673e-69 8.07989e-69 8.10196e-69 8.26247e-69 8.571e-69 9.01446e-69 9.55814e-69 1.01503e-68 1.07296e-68 1.12339e-68 1.16095e-68 1.18174e-68 1.18366e-68 1.16636e-68 1.13076e-68 1.0786e-68 1.01192e-68 9.32832e-69 8.43628e-69 7.46917e-69 6.45821e-69 5.43969e-69 4.45247e-69 3.53373e-69 2.71418e-69 2.01428e-69 1.44248e-69 9.95767e-70 6.621e-70 4.23798e-70 2.61035e-70 1.54687e-70 8.81858e-71 4.83692e-71 2.553e-71 1.29711e-71 6.34626e-72 2.99139e-72 1.35917e-72 5.95616e-73 2.51894e-73 1.02875e-73 4.05994e-74 1.54934e-74 5.72108e-75 2.04555e-75 7.08658e-76 2.38036e-76 7.7574e-77 2.45434e-77 7.54346e-78 2.25369e-78 6.54882e-79 1.85196e-79 5.09974e-80 1.3682e-80 3.57823e-81 9.12703e-82 2.2717e-82 5.52009e-83 1.31014e-83 3.03851e-84 6.88924e-85 1.52768e-85 3.31456e-86 7.03921e-87 1.46384e-87 2.98195e-88 5.95253e-89 1.16479e-89 2.23507e-90 4.20698e-91 7.77012e-92 1.40863e-92 2.50727e-93 4.37978e-94 7.31705e-95 0 
0 3.5295e-134 3.77057e-133 3.95275e-132 4.10034e-131 4.20881e-130 4.27438e-129 4.29454e-128 4.2682e-127 4.19577e-126 4.07915e-125 3.92166e-124 3.7279e-123 3.50349e-122 3.25484e-121 2.98881e-120 2.71239e-119 2.43241e-118 2.15524e-117 1.88657e-116 1.63121e-115 1.39298e-114 1.17468e-113 9.78069e-113 8.03954e-112 6.52286e-111 5.22305e-110 4.12687e-109 3.21704e-108 2.47377e-107 1.8761e-106 1.40304e-105 1.03448e-104 7.51859e-104 5.38553e-103 3.80114e-102 2.64306e-101 1.81018e-100 1.22085e-99 8.10658e-99 5.29849e-98 3.40805e-97 2.15674e-96 1.34253e-95 8.2182e-95 4.94588e-94 2.92558e-93 1.70045e-92 9.70907e-92 5.44414e-91 2.99702e-90 1.61929e-89 8.58421e-89 4.46347e-88 2.2756e-87 1.13715e-86 5.56783e-86 2.67015e-85 1.25372e-84 5.76119e-84 2.58992e-83 1.13853e-82 4.89201e-82 2.05364e-81 8.41875e-81 3.36857e-80 1.31491e-79 5.00467e-79 1.85629e-78 6.70595e-78 2.35813e-77 8.06689e-77 2.68289e-76 8.66917e-76 2.71981e-75 8.27918e-75 2.4435e-74 6.98703e-74 1.9342e-73 5.17961e-73 1.34071e-72 3.35166e-72 8.08558e-72 1.88071e-71 4.21427e-71 9.08953e-71 1.88544e-70 3.75815e-70 7.19243e-70 1.32063e-69 2.32481e-69 3.92113e-69 6.33316e-69 9.79121e-69 1.4486e-68 2.05081e-68 2.77872e-68 3.60497e-68 4.48164e-68 5.34512e-68 6.12587e-68 6.76075e-68 7.20494e-68 7.44009e-68 7.47688e-68 7.35202e-68 7.12116e-68 6.84994e-68 6.60498e-68 6.44582e-68 6.41814e-68 6.54837e-68 6.84002e-68 7.27277e-68 7.80492e-68 8.37986e-68 8.93555e-68 9.41553e-68 9.77881e-68 1.00064e-67 1.01031e-67 1.00943e-67 1.00189e-67 9.92117e-68 9.84191e-68 9.81224e-68 9.84983e-68 9.95822e-68 1.01289e-67 1.03454e-67 1.05878e-67 1.0837e-67 1.10766e-67 1.12929e-67 1.14729e-67 1.16023e-67 1.16648e-67 1.16433e-67 1.1524e-67 1.13005e-67 1.09773e-67 1.05695e-67 1.01007e-67 9.59806e-68 9.08684e-68 8.58688e-68 8.11135e-68 7.66845e-68 7.26487e-68 6.90947e-68 6.61525e-68 6.39852e-68 6.27498e-68 6.25411e-68 6.33409e-68 6.49932e-68 6.72203e-68 6.96751e-68 7.20139e-68 7.3964e-68 7.53678e-68 7.61954e-68 7.65296e-68 7.65356e-68 7.64265e-68 7.64286e-68 7.67459e-68 7.75243e-68 7.88152e-68 8.05508e-68 8.25399e-68 8.44956e-68 8.60915e-68 8.7038e-68 8.71578e-68 8.64419e-68 8.50705e-68 8.33936e-68 8.18741e-68 8.10068e-68 8.12276e-68 8.28317e-68 8.59149e-68 9.03461e-68 9.57788e-68 1.01696e-67 1.07484e-67 1.12523e-67 1.16276e-67 1.18353e-67 1.18544e-67 1.16813e-67 1.13253e-67 1.08036e-67 1.01364e-67 9.345e-68 8.45215e-68 7.48396e-68 6.47167e-68 5.4516e-68 4.46271e-68 3.54225e-68 2.72104e-68 2.0196e-68 1.44646e-68 9.98627e-69 6.64077e-69 4.25111e-69 2.61873e-69 1.55201e-69 8.84883e-70 4.85405e-70 2.56233e-70 1.302e-70 6.37088e-71 3.00335e-71 1.36477e-71 5.98144e-72 2.52996e-72 1.03338e-72 4.07881e-73 1.55676e-73 5.74935e-74 2.05598e-74 7.12384e-75 2.39328e-75 7.80083e-76 2.46851e-76 7.58844e-77 2.26755e-77 6.5904e-78 1.86409e-78 5.13421e-79 1.37774e-79 3.60396e-80 9.19471e-81 2.28907e-81 5.56358e-82 1.32077e-82 3.06393e-83 6.94858e-84 1.54123e-84 3.34482e-85 7.10531e-86 1.47798e-86 3.01157e-87 6.01329e-88 1.17701e-88 2.25915e-89 4.25352e-90 7.85836e-91 1.42504e-91 2.53724e-92 4.43345e-93 7.40886e-94 0 
0 3.59077e-133 3.83453e-132 4.0182e-131 4.1666e-130 4.27513e-129 4.34003e-128 4.3588e-127 4.33038e-126 4.25524e-125 4.13536e-124 3.97416e-123 3.77635e-122 3.54767e-121 3.29462e-120 3.02419e-119 2.74345e-118 2.45934e-117 2.17828e-116 1.90603e-115 1.64742e-114 1.4063e-113 1.18547e-112 9.86692e-112 8.10744e-111 6.57556e-110 5.26333e-109 4.15719e-108 3.23952e-107 2.49016e-106 1.88786e-105 1.41134e-104 1.04024e-103 7.55779e-103 5.41173e-102 3.81832e-101 2.6541e-100 1.81712e-99 1.22512e-98 8.13221e-98 5.31348e-97 3.41657e-96 2.16143e-95 1.34501e-94 8.23076e-94 4.95187e-93 2.9282e-92 1.70144e-91 9.71176e-91 5.44399e-90 2.99603e-89 1.61828e-88 8.57631e-88 4.45806e-87 2.27219e-86 1.13513e-85 5.55637e-85 2.66393e-84 1.25046e-83 5.74467e-83 2.58182e-82 1.13467e-81 4.87423e-81 2.04567e-80 8.38402e-80 3.35387e-79 1.30887e-78 4.98055e-78 1.84693e-77 6.67069e-77 2.34524e-76 8.02112e-76 2.66714e-75 8.61659e-75 2.70281e-74 8.22592e-74 2.42735e-73 6.93969e-73 1.92078e-72 5.14287e-72 1.331e-71 3.32692e-71 8.0248e-71 1.86633e-70 4.18154e-70 9.01792e-70 1.87039e-69 3.72778e-69 7.13365e-69 1.30973e-68 2.30545e-68 3.88823e-68 6.27968e-68 9.7081e-68 1.43625e-67 2.03328e-67 2.75495e-67 3.57415e-67 4.4434e-67 5.29971e-67 6.07414e-67 6.70414e-67 7.14528e-67 7.37933e-67 7.41683e-67 7.2941e-67 7.06623e-67 6.79821e-67 6.55601e-67 6.39858e-67 6.37118e-67 6.49997e-67 6.78848e-67 7.2166e-67 7.74312e-67 8.31201e-67 8.86191e-67 9.33698e-67 9.69665e-67 9.92215e-67 1.00182e-66 1.00098e-66 9.93553e-67 9.83912e-67 9.76094e-67 9.73176e-67 9.76903e-67 9.87626e-67 1.00451e-66 1.02591e-66 1.04987e-66 1.07451e-66 1.09819e-66 1.11957e-66 1.13737e-66 1.15017e-66 1.15634e-66 1.15421e-66 1.14241e-66 1.12031e-66 1.08834e-66 1.048e-66 1.00162e-66 9.51872e-67 9.01268e-67 8.51765e-67 8.04669e-67 7.60791e-67 7.20797e-67 6.85568e-67 6.56397e-67 6.349e-67 6.22638e-67 6.20555e-67 6.28472e-67 6.44846e-67 6.66925e-67 6.91269e-67 7.14471e-67 7.33824e-67 7.47765e-67 7.55993e-67 7.59326e-67 7.59402e-67 7.5833e-67 7.58351e-67 7.61489e-67 7.69188e-67 7.8196e-67 7.99133e-67 8.1882e-67 8.38179e-67 8.53983e-67 8.63365e-67 8.6457e-67 8.57507e-67 8.43958e-67 8.27384e-67 8.12364e-67 8.0379e-67 8.05976e-67 8.21842e-67 8.52332e-67 8.96154e-67 9.49877e-67 1.00839e-66 1.06562e-66 1.11545e-66 1.15256e-66 1.17309e-66 1.17498e-66 1.15784e-66 1.1226e-66 1.07096e-66 1.0049e-66 9.26523e-67 8.38081e-67 7.42154e-67 6.41837e-67 5.4073e-67 4.42694e-67 3.51426e-67 2.69985e-67 2.00411e-67 1.43552e-67 9.91194e-68 6.59209e-68 4.22042e-68 2.60011e-68 1.54114e-68 8.78782e-69 4.8211e-69 2.54521e-69 1.29344e-69 6.32971e-70 2.98428e-70 1.35626e-70 5.94485e-71 2.5148e-71 1.02732e-71 4.05543e-72 1.54805e-72 5.71801e-73 2.04508e-73 7.08717e-74 2.38134e-74 7.76321e-75 2.45704e-75 7.55449e-76 2.25783e-76 6.56337e-77 1.85682e-77 5.11519e-78 1.37292e-78 3.59211e-79 9.16649e-80 2.28255e-80 5.54901e-81 1.31762e-81 3.05734e-82 6.93534e-83 1.53868e-83 3.34011e-84 7.09715e-85 1.47667e-85 3.0097e-86 6.01118e-87 1.17692e-87 2.2596e-88 4.25558e-89 7.86441e-90 1.42656e-90 2.54067e-91 4.44077e-92 7.4232e-93 0 
0 3.61402e-132 3.85786e-131 4.04106e-130 4.18865e-129 4.29607e-128 4.35958e-127 4.37673e-126 4.3465e-125 4.26942e-124 4.14754e-123 3.98434e-122 3.78457e-121 3.55403e-120 3.29927e-119 3.02731e-118 2.74525e-117 2.46002e-116 2.17807e-115 1.90513e-114 1.64603e-113 1.4046e-112 1.1836e-111 9.84772e-111 8.08871e-110 6.55799e-109 5.24738e-108 4.1431e-107 3.22738e-106 2.47996e-105 1.87946e-104 1.40456e-103 1.03488e-102 7.51629e-102 5.38016e-101 3.79475e-100 2.63682e-99 1.80468e-98 1.21633e-97 8.07117e-97 5.27186e-96 3.38871e-95 2.14311e-94 1.33319e-93 8.15578e-93 4.90522e-92 2.89971e-91 1.68437e-90 9.61137e-90 5.38609e-89 2.96329e-88 1.60012e-87 8.47761e-87 4.4055e-86 2.24476e-85 1.12111e-84 5.48626e-84 2.6296e-83 1.23402e-82 5.66765e-82 2.54655e-81 1.11889e-80 4.80523e-80 2.01622e-79 8.26136e-79 3.30403e-78 1.28913e-77 4.90432e-77 1.81826e-76 6.56577e-76 2.30787e-75 7.89176e-75 2.62361e-74 8.47437e-74 2.65771e-73 8.08724e-73 2.38602e-72 6.82041e-72 1.88747e-71 5.05292e-71 1.30754e-70 3.26781e-70 7.8812e-70 1.83271e-69 4.10573e-69 8.85347e-69 1.83609e-68 3.65909e-68 7.00161e-68 1.28539e-67 2.26244e-67 3.81547e-67 6.16186e-67 9.52556e-67 1.4092e-66 1.99495e-66 2.70299e-66 3.50676e-66 4.35972e-66 5.20009e-66 5.96029e-66 6.57896e-66 7.01252e-66 7.24306e-66 7.28087e-66 7.1615e-66 6.93894e-66 6.67685e-66 6.43987e-66 6.28578e-66 6.25893e-66 6.38498e-66 6.66739e-66 7.08652e-66 7.60201e-66 8.15904e-66 8.69755e-66 9.16284e-66 9.51522e-66 9.73629e-66 9.83063e-66 9.82274e-66 9.7504e-66 9.6563e-66 9.58e-66 9.55159e-66 9.58816e-66 9.69314e-66 9.85831e-66 1.00677e-65 1.03021e-65 1.05431e-65 1.07748e-65 1.0984e-65 1.11581e-65 1.12832e-65 1.13436e-65 1.13228e-65 1.12073e-65 1.09911e-65 1.06781e-65 1.02832e-65 9.82907e-66 9.34192e-66 8.84623e-66 8.3612e-66 7.89962e-66 7.46946e-66 7.07728e-66 6.73171e-66 6.44549e-66 6.2345e-66 6.11406e-66 6.09348e-66 6.17104e-66 6.33161e-66 6.54822e-66 6.78713e-66 7.0149e-66 7.20497e-66 7.34196e-66 7.42291e-66 7.45581e-66 7.45671e-66 7.44628e-66 7.4465e-66 7.4772e-66 7.55255e-66 7.67759e-66 7.84575e-66 8.03855e-66 8.2282e-66 8.38307e-66 8.4751e-66 8.48709e-66 8.41814e-66 8.28567e-66 8.12356e-66 7.97663e-66 7.89277e-66 7.91419e-66 8.06946e-66 8.36785e-66 8.79667e-66 9.32238e-66 9.89494e-66 1.0455e-65 1.09426e-65 1.13057e-65 1.15066e-65 1.15249e-65 1.1357e-65 1.10119e-65 1.0506e-65 9.8587e-66 9.09064e-66 8.2237e-66 7.28317e-66 6.29938e-66 5.30765e-66 4.34585e-66 3.4503e-66 2.65102e-66 1.96809e-66 1.40989e-66 9.73608e-67 6.47587e-67 4.14647e-67 2.55483e-67 1.51446e-67 8.63662e-68 4.73864e-68 2.50194e-68 1.27158e-68 6.22342e-69 2.93449e-69 1.33378e-69 5.84699e-70 2.4737e-70 1.01066e-70 3.99015e-71 1.52333e-71 5.62749e-72 2.013e-72 6.97703e-73 2.3447e-73 7.64498e-74 2.42002e-74 7.44198e-75 2.2246e-75 6.46797e-76 1.83017e-76 5.04278e-77 1.35376e-77 3.54272e-78 9.04237e-79 2.25214e-79 5.47629e-80 1.30065e-80 3.01867e-81 6.84926e-82 1.51995e-82 3.30028e-83 7.01429e-84 1.45981e-84 2.97611e-85 5.94567e-86 1.16441e-86 2.2362e-87 4.21267e-88 7.78732e-89 1.41298e-89 2.51722e-90 4.40107e-91 7.35889e-92 0 
0 3.59814e-131 3.83942e-130 4.02016e-129 4.16535e-128 4.27051e-127 4.33195e-126 4.34729e-125 4.3156e-124 4.23743e-123 4.11488e-122 3.95145e-121 3.75189e-120 3.522e-119 3.2683e-118 2.99775e-117 2.71742e-116 2.43417e-115 2.15438e-114 1.88371e-113 1.62692e-112 1.38778e-111 1.169e-110 9.72271e-110 7.98313e-109 6.47005e-108 5.17516e-107 4.08462e-106 3.1807e-105 2.44322e-104 1.85097e-103 1.38279e-102 1.01849e-101 7.39465e-101 5.29129e-100 3.7308e-99 2.59151e-98 1.77308e-97 1.19463e-96 7.92458e-96 5.17443e-95 3.325e-94 2.10214e-93 1.30729e-92 7.99483e-92 4.80692e-91 2.84072e-90 1.6496e-89 9.41014e-89 5.27175e-88 2.89953e-87 1.56524e-86 8.29041e-86 4.30699e-85 2.19396e-84 1.09544e-83 5.35917e-83 2.568e-82 1.2048e-81 5.532e-81 2.48497e-80 1.09156e-79 4.68672e-79 1.96602e-78 8.05381e-78 3.22029e-77 1.25617e-76 4.77791e-76 1.77102e-75 6.39385e-75 2.24699e-74 7.68208e-74 2.55342e-73 8.24614e-73 2.58568e-72 7.8667e-72 2.32057e-71 6.63228e-71 1.83513e-70 4.91209e-70 1.27092e-69 3.17588e-69 7.65853e-69 1.78072e-68 3.98882e-68 8.60049e-68 1.78346e-67 3.55388e-67 6.79974e-67 1.24824e-66 2.19691e-66 3.70475e-66 5.98277e-66 9.24835e-66 1.36815e-65 1.93681e-65 2.62421e-65 3.40458e-65 4.23277e-65 5.04887e-65 5.78727e-65 6.38847e-65 6.81012e-65 7.03483e-65 7.07253e-65 6.95768e-65 6.74259e-65 6.489e-65 6.25956e-65 6.11033e-65 6.08429e-65 6.20634e-65 6.47987e-65 6.88587e-65 7.38526e-65 7.92494e-65 8.44672e-65 8.89765e-65 9.23925e-65 9.45369e-65 9.5454e-65 9.53809e-65 9.46834e-65 9.37747e-65 9.30379e-65 9.27643e-65 9.31193e-65 9.41361e-65 9.57353e-65 9.77624e-65 1.00032e-64 1.02364e-64 1.04607e-64 1.06631e-64 1.08316e-64 1.09528e-64 1.10112e-64 1.0991e-64 1.08793e-64 1.06699e-64 1.03668e-64 9.98425e-65 9.5443e-65 9.07224e-65 8.59181e-65 8.12159e-65 7.67397e-65 7.2567e-65 6.87616e-65 6.54076e-65 6.26288e-65 6.05796e-65 5.94092e-65 5.9208e-65 5.99598e-65 6.15179e-65 6.36206e-65 6.59407e-65 6.81532e-65 7.00003e-65 7.13324e-65 7.21204e-65 7.24417e-65 7.24518e-65 7.23515e-65 7.23536e-65 7.26508e-65 7.33805e-65 7.45917e-65 7.6221e-65 7.80894e-65 7.99276e-65 8.14293e-65 8.23225e-65 8.24405e-65 8.17745e-65 8.04931e-65 7.89242e-65 7.75021e-65 7.66904e-65 7.6898e-65 7.84016e-65 8.12908e-65 8.5443e-65 9.05332e-65 9.60768e-65 1.01499e-64 1.06221e-64 1.09736e-64 1.1168e-64 1.11857e-64 1.1023e-64 1.06885e-64 1.01981e-64 9.57057e-65 8.82577e-65 7.9849e-65 7.07244e-65 6.1178e-65 5.15524e-65 4.22155e-65 3.35201e-65 2.57581e-65 1.91249e-65 1.37022e-65 9.46322e-66 6.29509e-66 4.03117e-66 2.48405e-66 1.47266e-66 8.3991e-67 4.6088e-67 2.43363e-67 1.23699e-67 6.05474e-68 2.85525e-68 1.2979e-68 5.69034e-69 2.4077e-69 9.83806e-70 3.88462e-70 1.48323e-70 5.48009e-71 1.96054e-71 6.79619e-72 2.28427e-72 7.44911e-73 2.3584e-73 7.25369e-74 2.16869e-74 6.30655e-75 1.78483e-75 4.91878e-76 1.32073e-76 3.45698e-77 8.82536e-78 2.19856e-78 5.34718e-79 1.27027e-79 2.94884e-80 6.69238e-81 1.48549e-81 3.22625e-82 6.85865e-83 1.42778e-83 2.91156e-84 5.81824e-85 1.13976e-85 2.18945e-86 4.12574e-87 7.62875e-88 1.3846e-88 2.46737e-89 4.31516e-90 7.21725e-91 0 
0 3.54326e-130 3.7794e-129 3.95576e-128 4.09703e-127 4.19882e-126 4.25757e-125 4.271e-124 4.23822e-123 4.15986e-122 4.038e-121 3.87614e-120 3.67898e-119 3.45225e-118 3.20236e-117 2.93617e-116 2.6606e-115 2.38238e-114 2.10776e-113 1.84227e-112 1.59054e-111 1.35625e-110 1.14202e-109 9.49489e-109 7.79326e-108 6.3139e-107 5.04845e-106 3.9832e-105 3.10063e-104 2.38088e-103 1.80311e-102 1.34657e-101 9.91468e-101 7.19602e-100 5.1474e-99 3.62812e-98 2.51935e-97 1.72313e-96 1.16059e-95 7.69631e-95 5.02375e-94 3.22714e-93 2.03963e-92 1.26801e-91 7.7522e-91 4.6596e-90 2.75282e-89 1.59808e-88 9.11349e-88 5.10406e-87 2.80648e-86 1.51457e-85 8.01978e-85 4.16523e-84 2.12116e-83 1.0588e-82 5.17856e-82 2.4808e-81 1.16359e-80 5.34142e-80 2.39877e-79 1.05344e-78 4.52196e-78 1.89646e-77 7.76708e-77 3.10495e-76 1.21092e-75 4.60479e-75 1.7065e-74 6.15967e-74 2.16427e-73 7.39787e-73 2.4585e-72 7.9382e-72 2.48869e-71 7.57039e-71 2.23281e-70 6.38048e-70 1.7652e-69 4.72426e-69 1.22216e-68 3.05365e-68 7.36292e-68 1.71179e-67 3.83403e-67 8.26593e-67 1.71393e-66 3.41504e-66 6.53361e-66 1.19931e-65 2.11066e-65 3.55911e-65 5.74734e-65 8.88413e-65 1.31424e-64 1.86047e-64 2.52076e-64 3.2704e-64 4.06606e-64 4.8502e-64 5.55987e-64 6.1379e-64 6.54365e-64 6.76037e-64 6.79755e-64 6.68823e-64 6.48257e-64 6.2398e-64 6.02004e-64 5.87703e-64 5.85204e-64 5.96896e-64 6.23107e-64 6.62017e-64 7.09881e-64 7.61612e-64 8.11634e-64 8.5487e-64 8.87633e-64 9.08213e-64 9.17034e-64 9.16366e-64 9.09711e-64 9.0103e-64 8.9399e-64 8.91383e-64 8.94792e-64 9.04537e-64 9.19856e-64 9.39271e-64 9.61004e-64 9.8334e-64 1.00482e-63 1.0242e-63 1.04034e-63 1.05194e-63 1.05754e-63 1.05561e-63 1.0449e-63 1.02484e-63 9.95796e-64 9.59137e-64 9.16968e-64 8.71712e-64 8.25643e-64 7.8054e-64 7.37594e-64 6.97547e-64 6.61015e-64 6.28807e-64 6.02115e-64 5.82424e-64 5.7117e-64 5.69225e-64 5.76434e-64 5.91393e-64 6.1159e-64 6.33881e-64 6.55146e-64 6.72905e-64 6.8572e-64 6.93309e-64 6.96414e-64 6.96525e-64 6.95569e-64 6.9559e-64 6.98436e-64 7.05427e-64 7.17034e-64 7.32652e-64 7.50566e-64 7.68194e-64 7.82601e-64 7.91179e-64 7.92328e-64 7.85962e-64 7.73698e-64 7.58677e-64 7.45058e-64 7.37285e-64 7.39275e-64 7.5368e-64 7.81359e-64 8.21136e-64 8.69897e-64 9.23001e-64 9.74946e-64 1.02017e-63 1.05384e-63 1.07247e-63 1.07415e-63 1.05854e-63 1.02647e-63 9.79439e-64 9.1925e-64 8.47793e-64 7.67099e-64 6.79515e-64 5.87861e-64 4.95426e-64 4.05746e-64 3.22211e-64 2.47629e-64 1.83882e-64 1.3176e-64 9.10084e-65 6.05472e-65 3.87767e-65 2.38972e-65 1.41688e-65 8.08179e-66 4.43512e-66 2.34215e-66 1.19061e-66 5.82828e-67 2.74873e-67 1.24961e-67 5.47919e-68 2.3186e-68 9.47509e-69 3.74174e-69 1.42885e-69 5.27983e-70 1.88915e-70 6.54961e-71 2.20171e-71 7.18094e-72 2.27385e-72 6.99478e-73 2.09163e-73 6.08352e-74 1.72202e-74 4.74656e-75 1.27473e-75 3.33724e-76 8.52139e-77 2.12328e-77 5.16519e-78 1.22731e-78 2.84974e-79 6.46896e-80 1.43623e-80 3.12002e-81 6.63444e-82 1.38145e-82 2.8178e-83 5.63234e-84 1.10363e-84 2.12061e-85 3.99711e-86 7.39295e-87 1.34217e-87 2.39245e-88 4.18533e-89 7.00203e-90 0 