# vtk DataFile Version 3.0
Gray-Scott Simulation Output
ASCII
DATASET STRUCTURED_POINTS
DIMENSIONS 256 256 1
SPACING 1.0 1.0 1.0
ORIGIN 0 0 0
POINT_DATA 65536
SCALARS u double
LOOKUP_TABLE default
0 0 0 0 0 0 0 0 0 0 0 0 0 0 0 0 0 0 0 0 0 0 0 0 0 0 0 0 0 0 0 0 0 0 0 0 0 0 0 0 0 0 0 0 0 0 0 0 0 0 0 0 0 0 0 0 0 0 0 0 0 0 0 0 0 0 0 0 0 0 0 0 0 0 0 0 0 0 0 0 0 0 0 0 0 0 0 0 0 0 0 0 0 0 0 0 0 0 0 0 0 0 0 0 0 0 0 0 0 0 0 0 0 0 0 0 0 0 0 0 0 0 0 0 0 0 0 0 0 0 0 0 0 0 0 0 0 0 0 0 0 0 0 0 0 0 0 0 0 0 0 0 0 0 0 0 0 0 0 0 0 0 0 0 0 0 0 0 0 0 0 0 0 0 0 0 0 0 0 0 0 0 0 0 0 0 0 0 0 0 0 0 0 0 0 0 0 0 0 0 0 0 0 0 0 0 0 0 0 0 0 0 0 0 0 0 0 0 0 0 0 0 0 0 0 0 0 0 0 0 0 0 0 0 0 0 0 0 0 0 0 0 0 0 0 0 0 0 0 0 0 0 0 0 0 0 
0 1.06393e-123 9.05723e-123 7.53046e-122 6.19622e-121 5.04602e-120 4.06674e-119 3.24323e-118 2.55916e-117 1.99785e-116 1.54286e-115 1.17854e-114 8.90363e-114 6.65193e-113 4.91402e-112 3.58909e-111 2.59142e-110 1.84947e-109 1.30454e-108 9.09317e-108 6.26273e-107 4.26135e-106 2.86422e-105 1.90144e-104 1.24657e-103 8.06942e-103 5.15704e-102 3.2533e-101 2.02557e-100 1.24452e-99 7.54429e-99 4.51155e-98 2.66104e-97 1.54782e-96 8.87682e-96 5.0186e-95 2.7965e-94 1.53559e-93 8.30761e-93 4.42724e-92 2.32357e-91 1.20076e-90 6.10853e-90 3.05847e-89 1.50682e-88 7.30303e-88 3.4812e-87 1.63167e-86 7.518e-86 3.40429e-85 1.51457e-84 6.61872e-84 2.84024e-83 1.19649e-82 4.94658e-82 2.00637e-81 7.98158e-81 3.11314e-80 1.19014e-79 4.45791e-79 1.6355e-78 5.87486e-78 2.06542e-77 7.1042e-77 2.38973e-76 7.85831e-76 2.52509e-75 7.9251e-75 2.4284e-74 7.26152e-74 2.11799e-73 6.02284e-73 1.66897e-72 4.50454e-72 1.18354e-71 3.02566e-71 7.52199e-71 1.81756e-70 4.26627e-70 9.72244e-70 2.14995e-69 4.61073e-69 9.58421e-69 1.92999e-68 3.76297e-68 7.10001e-68 1.29576e-67 2.28624e-67 3.89821e-67 6.42071e-67 1.02125e-66 1.5682e-66 2.32439e-66 3.32522e-66 4.59146e-66 6.12032e-66 7.87836e-66 9.79858e-66 1.17836e-65 1.37159e-65 1.54728e-65 1.69455e-65 1.80561e-65 1.87704e-65 1.9103e-65 1.91152e-65 1.89049e-65 1.85922e-65 1.83027e-65 1.81504e-65 1.82233e-65 1.85725e-65 1.92064e-65 2.00906e-65 2.11545e-65 2.23029e-65 2.34322e-65 2.44466e-65 2.5274e-65 2.58756e-65 2.625e-65 2.64293e-65 2.6471e-65 2.64449e-65 2.64204e-65 2.6455e-65 2.65874e-65 2.68341e-65 2.7191e-65 2.76375e-65 2.8142e-65 2.8668e-65 2.91769e-65 2.96308e-65 2.99925e-65 3.02263e-65 3.02987e-65 3.01819e-65 2.9857e-65 2.93187e-65 2.85773e-65 2.7659e-65 2.66023e-65 2.54529e-65 2.42582e-65 2.30621e-65 2.19035e-65 2.08161e-65 1.98307e-65 1.89774e-65 1.82857e-65 1.77822e-65 1.74862e-65 1.74035e-65 1.75218e-65 1.78094e-65 1.82178e-65 1.86889e-65 1.9164e-65 1.95937e-65 1.9945e-65 2.02052e-65 2.0382e-65 2.04993e-65 2.05916e-65 2.06964e-65 2.08466e-65 2.10633e-65 2.13509e-65 2.16944e-65 2.20613e-65 2.24072e-65 2.26852e-65 2.28565e-65 2.29012e-65 2.28259e-65 2.26656e-65 2.24806e-65 2.23478e-65 2.2347e-65 2.25475e-65 2.2994e-65 2.36973e-65 2.46297e-65 2.5727e-65 2.68961e-65 2.80265e-65 2.90048e-65 2.97279e-65 3.0114e-65 3.01086e-65 2.96859e-65 2.88461e-65 2.76106e-65 2.60165e-65 2.41133e-65 2.19605e-65 1.96267e-65 1.71888e-65 1.47285e-65 1.23286e-65 1.0066e-65 8.00568e-66 6.19445e-66 4.65815e-66 3.40132e-66 2.40986e-66 1.65577e-66 1.10278e-66 7.11737e-67 4.45053e-67 2.69603e-67 1.58217e-67 8.99558e-68 4.95576e-68 2.64596e-68 1.36947e-68 6.87307e-69 3.34592e-69 1.58054e-69 7.24751e-70 3.22732e-70 1.3962e-70 5.87079e-71 2.40039e-71 9.54766e-72 3.69607e-72 1.39318e-72 5.11561e-73 1.83064e-73 6.38733e-74 2.17388e-74 7.22004e-75 2.34109e-75 7.414e-76 2.29414e-76 6.93898e-77 2.05234e-77 5.93812e-78 1.68134e-78 4.66049e-79 1.26511e-79 3.36433e-80 8.76776e-81 2.23997e-81 5.61179e-82 1.37911e-82 3.32561e-83 7.87125e-84 1.82913e-84 4.17441e-85 9.35865e-86 2.06151e-86 4.4557e-87 9.09291e-88 0 
0 9.05891e-123 7.70975e-122 6.40836e-121 5.27149e-120 4.29178e-119 3.45794e-118 2.75697e-117 2.17488e-116 1.6974e-115 1.31049e-114 1.00078e-113 7.55869e-113 5.64565e-112 4.16957e-111 3.04458e-110 2.19771e-109 1.56808e-108 1.10579e-107 7.70584e-107 5.30592e-106 3.60942e-105 2.42544e-104 1.60977e-103 1.05509e-102 6.82834e-102 4.36285e-101 2.75165e-100 1.71284e-99 1.05214e-98 6.37662e-98 3.81242e-97 2.24818e-96 1.30739e-95 7.49631e-95 4.23721e-94 2.3606e-93 1.29596e-92 7.00977e-92 3.73485e-91 1.95979e-90 1.01257e-89 5.15017e-89 2.57815e-88 1.26994e-87 6.15384e-87 2.93288e-86 1.37442e-85 6.33164e-85 2.8666e-84 1.27514e-83 5.57151e-83 2.39049e-82 1.00687e-81 4.16202e-81 1.6879e-80 6.71372e-80 2.61827e-79 1.00081e-78 3.74829e-78 1.37499e-77 4.93847e-77 1.73601e-76 5.97052e-76 2.00816e-75 6.60291e-75 2.12149e-74 6.65776e-74 2.03988e-73 6.09924e-73 1.77884e-72 5.05805e-72 1.40152e-71 3.78244e-71 9.93751e-71 2.54033e-70 6.3151e-70 1.52586e-69 3.58142e-69 8.16139e-69 1.80469e-68 3.87015e-68 8.04456e-68 1.6199e-67 3.15831e-67 5.95902e-67 1.08751e-66 1.91878e-66 3.27162e-66 5.38862e-66 8.57089e-66 1.31611e-65 1.95075e-65 2.79072e-65 3.85345e-65 5.13665e-65 6.61228e-65 8.22413e-65 9.89058e-65 1.15129e-64 1.29883e-64 1.42255e-64 1.51591e-64 1.57602e-64 1.60412e-64 1.60532e-64 1.58783e-64 1.56174e-64 1.53754e-64 1.5248e-64 1.53091e-64 1.56013e-64 1.61319e-64 1.6872e-64 1.77627e-64 1.87243e-64 1.96699e-64 2.05195e-64 2.12126e-64 2.17167e-64 2.20306e-64 2.21813e-64 2.22167e-64 2.21953e-64 2.21751e-64 2.22044e-64 2.23153e-64 2.25219e-64 2.28205e-64 2.31941e-64 2.36162e-64 2.40562e-64 2.44819e-64 2.48616e-64 2.51643e-64 2.53598e-64 2.54204e-64 2.53227e-64 2.50508e-64 2.46002e-64 2.39797e-64 2.3211e-64 2.23262e-64 2.13638e-64 2.03631e-64 1.93612e-64 1.83904e-64 1.74792e-64 1.66533e-64 1.59379e-64 1.53579e-64 1.49356e-64 1.46872e-64 1.46177e-64 1.47169e-64 1.49581e-64 1.53007e-64 1.5696e-64 1.60947e-64 1.64553e-64 1.67503e-64 1.69688e-64 1.71173e-64 1.72158e-64 1.72932e-64 1.7381e-64 1.75068e-64 1.76882e-64 1.7929e-64 1.82166e-64 1.85238e-64 1.88136e-64 1.90466e-64 1.91903e-64 1.92281e-64 1.91653e-64 1.90313e-64 1.88767e-64 1.87656e-64 1.8765e-64 1.89328e-64 1.93064e-64 1.98948e-64 2.0675e-64 2.15932e-64 2.25714e-64 2.35173e-64 2.43358e-64 2.49407e-64 2.52635e-64 2.52586e-64 2.49043e-64 2.42006e-64 2.31653e-64 2.18295e-64 2.02343e-64 1.84296e-64 1.64729e-64 1.44283e-64 1.23645e-64 1.0351e-64 8.45237e-65 6.72309e-65 5.20263e-65 3.91274e-65 2.85734e-65 2.02465e-65 1.39123e-65 9.26672e-66 5.98128e-66 3.74043e-66 2.26603e-66 1.32991e-66 7.56181e-67 4.16613e-67 2.22448e-67 1.15139e-67 5.77884e-68 2.81337e-68 1.32904e-68 6.09453e-69 2.71402e-69 1.17419e-69 4.93754e-70 2.01891e-70 8.03073e-71 3.10901e-71 1.17197e-71 4.3036e-72 1.54016e-72 5.37416e-73 1.82919e-73 6.07569e-74 1.97019e-74 6.23992e-75 1.93101e-75 5.84118e-76 1.72781e-76 4.99965e-77 1.41577e-77 3.92478e-78 1.06552e-78 2.83389e-79 7.38629e-80 1.88728e-80 4.7288e-81 1.16227e-81 2.80311e-82 6.63551e-83 1.54219e-83 3.5201e-84 7.89297e-85 1.73893e-85 3.75908e-86 7.67247e-87 0 
0 7.53331e-122 6.4096e-121 5.32618e-120 4.38007e-119 3.56504e-118 2.87161e-117 2.28886e-116 1.80511e-115 1.40843e-114 1.08709e-113 8.29952e-113 6.26681e-112 4.67949e-111 3.4551e-110 2.52222e-109 1.82018e-108 1.29838e-107 9.15357e-107 6.37718e-106 4.38996e-105 2.98558e-104 2.00574e-103 1.33088e-102 8.7209e-102 5.64261e-101 3.60439e-100 2.27275e-99 1.4144e-98 8.68614e-98 5.26315e-97 3.14599e-96 1.85477e-95 1.07837e-94 6.18181e-94 3.49344e-93 1.94582e-92 1.06802e-91 5.77568e-91 3.07669e-90 1.61411e-89 8.33799e-89 4.24009e-88 2.12216e-87 1.04513e-86 5.06354e-86 2.41282e-85 1.13051e-84 5.20707e-84 2.35706e-83 1.04831e-82 4.57968e-82 1.96462e-81 8.2737e-81 3.41953e-80 1.38658e-79 5.51444e-79 2.15027e-78 8.21816e-78 3.0775e-77 1.12878e-76 4.05372e-76 1.42484e-75 4.89978e-75 1.64785e-74 5.41765e-74 1.7405e-73 5.46164e-73 1.67326e-72 5.00264e-72 1.45891e-71 4.14803e-71 1.14929e-70 3.10153e-70 8.1481e-70 2.08279e-69 5.17744e-69 1.25092e-68 2.93598e-68 6.69031e-68 1.47935e-67 3.17237e-67 6.59397e-67 1.32777e-66 2.5887e-66 4.88422e-66 8.9135e-66 1.57267e-65 2.68146e-65 4.41657e-65 7.02478e-65 1.0787e-64 1.59886e-64 2.28733e-64 3.15842e-64 4.21024e-64 5.41985e-64 6.74123e-64 8.1075e-64 9.43777e-64 1.06479e-63 1.16629e-63 1.24293e-63 1.29234e-63 1.31552e-63 1.31666e-63 1.30248e-63 1.2812e-63 1.26146e-63 1.25106e-63 1.25604e-63 1.27992e-63 1.32329e-63 1.38379e-63 1.45661e-63 1.53522e-63 1.61254e-63 1.68202e-63 1.73871e-63 1.77996e-63 1.80567e-63 1.81803e-63 1.82097e-63 1.81926e-63 1.81764e-63 1.82005e-63 1.82913e-63 1.84602e-63 1.87042e-63 1.90094e-63 1.93542e-63 1.97137e-63 2.00614e-63 2.03716e-63 2.06188e-63 2.07786e-63 2.08282e-63 2.07483e-63 2.05261e-63 2.01579e-63 1.96507e-63 1.90223e-63 1.8299e-63 1.7512e-63 1.66936e-63 1.5874e-63 1.50798e-63 1.43341e-63 1.36581e-63 1.30724e-63 1.25974e-63 1.22516e-63 1.20481e-63 1.19911e-63 1.20722e-63 1.22698e-63 1.25505e-63 1.28744e-63 1.32011e-63 1.34967e-63 1.37385e-63 1.39178e-63 1.40395e-63 1.41203e-63 1.41837e-63 1.42556e-63 1.43583e-63 1.45067e-63 1.47035e-63 1.49386e-63 1.51899e-63 1.5427e-63 1.56176e-63 1.57353e-63 1.57665e-63 1.57154e-63 1.56061e-63 1.54799e-63 1.53891e-63 1.53887e-63 1.55258e-63 1.5831e-63 1.63118e-63 1.69493e-63 1.76995e-63 1.84987e-63 1.92715e-63 1.99402e-63 2.04344e-63 2.06979e-63 2.06936e-63 2.04035e-63 1.98278e-63 1.89807e-63 1.78875e-63 1.65819e-63 1.51045e-63 1.35023e-63 1.18278e-63 1.01373e-63 8.48746e-64 6.9315e-64 5.51405e-64 4.26752e-64 3.20984e-64 2.34429e-64 1.66129e-64 1.14166e-64 7.60508e-65 4.90918e-65 3.07023e-65 1.86014e-65 1.09178e-65 6.20816e-66 3.42053e-66 1.82647e-66 9.45427e-67 4.74533e-67 2.31032e-67 1.09144e-67 5.00522e-68 2.22902e-68 9.64408e-69 4.05555e-69 1.65835e-69 6.59685e-70 2.55403e-70 9.62815e-71 3.53577e-71 1.26545e-71 4.41588e-72 1.50312e-72 4.99301e-73 1.61923e-73 5.12879e-74 1.58729e-74 4.80189e-75 1.42052e-75 4.11088e-76 1.16421e-76 3.22777e-77 8.76389e-78 2.33114e-78 6.07666e-79 1.55285e-79 3.89135e-80 9.56568e-81 2.30732e-81 5.46266e-82 1.26979e-82 2.89877e-83 6.50081e-84 1.43244e-84 3.09705e-85 6.32219e-86 0 
0 6.19979e-121 5.27355e-120 4.38093e-119 3.60173e-118 2.93072e-117 2.36001e-116 1.88057e-115 1.48271e-114 1.15657e-113 8.92453e-113 6.8117e-112 5.14201e-111 3.83858e-110 2.83347e-109 2.06789e-108 1.49192e-107 1.06395e-106 7.49896e-106 5.22312e-105 3.59462e-104 2.44406e-103 1.64154e-102 1.08895e-101 7.1339e-101 4.61468e-100 2.94707e-99 1.85784e-98 1.15592e-97 7.09713e-97 4.29935e-96 2.56931e-95 1.51444e-94 8.8031e-94 5.04533e-93 2.85059e-92 1.58742e-91 8.71125e-91 4.70993e-90 2.50846e-89 1.31574e-88 6.79539e-88 3.45497e-87 1.72888e-86 8.51292e-86 4.12367e-85 1.96461e-84 9.20346e-84 4.23836e-83 1.91824e-82 8.53008e-82 3.72587e-81 1.59811e-80 6.72917e-80 2.78077e-79 1.12741e-78 4.48312e-78 1.74789e-77 6.67946e-77 2.50099e-76 9.17219e-76 3.29357e-75 1.15753e-74 3.98013e-74 1.33843e-73 4.39996e-73 1.41343e-72 4.43492e-72 1.3586e-71 4.06157e-71 1.18438e-70 3.36728e-70 9.32913e-70 2.51746e-69 6.61333e-69 1.6904e-68 4.20185e-68 1.01517e-67 2.38258e-67 5.4291e-67 1.20044e-66 2.57421e-66 5.35055e-66 1.07738e-65 2.10049e-65 3.96306e-65 7.23237e-65 1.27605e-64 2.17571e-64 3.58356e-64 5.69986e-64 8.75256e-64 1.29733e-63 1.85597e-63 2.56282e-63 3.41637e-63 4.39801e-63 5.47043e-63 6.57939e-63 7.65928e-63 8.64183e-63 9.46631e-63 1.00892e-62 1.04913e-62 1.06806e-62 1.06911e-62 1.05771e-62 1.04055e-62 1.02459e-62 1.01619e-62 1.02022e-62 1.03954e-62 1.07462e-62 1.12358e-62 1.18251e-62 1.24614e-62 1.30872e-62 1.36497e-62 1.41088e-62 1.44429e-62 1.46513e-62 1.47517e-62 1.47758e-62 1.47623e-62 1.47494e-62 1.47691e-62 1.48427e-62 1.49793e-62 1.51767e-62 1.54235e-62 1.57024e-62 1.5993e-62 1.62743e-62 1.65251e-62 1.6725e-62 1.68542e-62 1.68943e-62 1.68297e-62 1.665e-62 1.63521e-62 1.59418e-62 1.54333e-62 1.48478e-62 1.42108e-62 1.35482e-62 1.28846e-62 1.22413e-62 1.16372e-62 1.10895e-62 1.06148e-62 1.02298e-62 9.94938e-63 9.78435e-63 9.73807e-63 9.80383e-63 9.96401e-63 1.01917e-62 1.04544e-62 1.07195e-62 1.09593e-62 1.11556e-62 1.13011e-62 1.13999e-62 1.14655e-62 1.15169e-62 1.15751e-62 1.16583e-62 1.17783e-62 1.19375e-62 1.21279e-62 1.23313e-62 1.25233e-62 1.26778e-62 1.27732e-62 1.27986e-62 1.27575e-62 1.26692e-62 1.25672e-62 1.24938e-62 1.24935e-62 1.26044e-62 1.28512e-62 1.32401e-62 1.37557e-62 1.43625e-62 1.50089e-62 1.5634e-62 1.61748e-62 1.65744e-62 1.67874e-62 1.67836e-62 1.65486e-62 1.60822e-62 1.5396e-62 1.45105e-62 1.34526e-62 1.22553e-62 1.09566e-62 9.59895e-63 8.22798e-63 6.88978e-63 5.62742e-63 4.47719e-63 3.46548e-63 2.60688e-63 1.90413e-63 1.34951e-63 9.27498e-64 6.179e-64 3.98896e-64 2.49491e-64 1.51168e-64 8.87312e-65 5.04581e-65 2.78026e-65 1.48466e-65 7.68529e-66 3.8576e-66 1.87819e-66 8.87332e-67 4.06934e-67 1.81231e-67 7.84142e-68 3.29762e-68 1.34848e-68 5.36443e-69 2.07698e-69 7.83016e-70 2.87563e-70 1.02924e-70 3.59183e-71 1.2227e-71 4.06179e-72 1.31733e-72 4.17285e-73 1.29155e-73 3.90752e-74 1.15605e-74 3.34582e-75 9.4764e-76 2.62759e-76 7.13507e-77 1.8981e-77 4.9484e-78 1.26468e-78 3.16962e-79 7.79255e-80 1.87988e-80 4.45129e-81 1.03485e-81 2.36277e-82 5.29957e-83 1.16793e-83 2.52556e-84 5.15634e-85 0 
0 5.04993e-120 4.29432e-119 3.56646e-118 2.9313e-117 2.38454e-116 1.91967e-115 1.52927e-114 1.2054e-113 9.40003e-113 7.2515e-112 5.53328e-111 4.17586e-110 3.11652e-109 2.29988e-108 1.67804e-107 1.21034e-106 8.62924e-106 6.08054e-105 4.23411e-104 2.91325e-103 1.98029e-102 1.32973e-101 8.81893e-101 5.77603e-100 3.73543e-99 2.38499e-98 1.50315e-97 9.35026e-97 5.73958e-96 3.47618e-95 2.07692e-94 1.22394e-93 7.11295e-93 4.07578e-92 2.30231e-91 1.28183e-90 7.03285e-90 3.8017e-89 2.02434e-88 1.06161e-87 5.48181e-87 2.78659e-86 1.39416e-85 6.86354e-85 3.32412e-84 1.58341e-83 7.41643e-83 3.41483e-82 1.54527e-81 6.87048e-81 3.00051e-80 1.28679e-79 5.41753e-79 2.23843e-78 9.0741e-78 3.60781e-77 1.40644e-76 5.37399e-76 2.01195e-75 7.37783e-75 2.64896e-74 9.30883e-74 3.20051e-73 1.07616e-72 3.53746e-72 1.13627e-71 3.56499e-71 1.09203e-70 3.26442e-70 9.51869e-70 2.70606e-69 7.49682e-69 2.02291e-68 5.31393e-68 1.35821e-67 3.376e-67 8.15619e-67 1.91419e-66 4.36169e-66 9.64403e-66 2.06802e-65 4.29838e-65 8.65507e-65 1.68741e-64 3.18367e-64 5.81001e-64 1.02509e-63 1.74783e-63 2.87883e-63 4.57897e-63 7.03142e-63 1.04223e-62 1.49105e-62 2.05895e-62 2.74475e-62 3.5335e-62 4.39526e-62 5.28646e-62 6.15444e-62 6.94435e-62 7.6074e-62 8.10863e-62 8.43258e-62 8.58568e-62 8.5951e-62 8.50449e-62 8.36739e-62 8.23974e-62 8.17242e-62 8.20468e-62 8.3594e-62 8.64043e-62 9.03266e-62 9.50479e-62 1.00147e-61 1.05162e-61 1.0967e-61 1.1335e-61 1.1603e-61 1.17702e-61 1.1851e-61 1.18706e-61 1.186e-61 1.18499e-61 1.18658e-61 1.19248e-61 1.20343e-61 1.21924e-61 1.239e-61 1.26132e-61 1.28459e-61 1.30711e-61 1.32719e-61 1.3432e-61 1.35354e-61 1.35675e-61 1.35158e-61 1.33719e-61 1.31333e-61 1.28046e-61 1.23972e-61 1.19281e-61 1.14176e-61 1.08865e-61 1.03545e-61 9.8387e-62 9.3542e-62 8.9148e-62 8.53396e-62 8.22496e-62 7.99986e-62 7.86734e-62 7.83015e-62 7.88291e-62 8.0115e-62 8.1943e-62 8.40527e-62 8.6182e-62 8.81091e-62 8.96859e-62 9.08552e-62 9.16499e-62 9.21768e-62 9.25895e-62 9.30556e-62 9.37219e-62 9.46832e-62 9.59593e-62 9.74847e-62 9.91154e-62 1.00655e-61 1.01893e-61 1.0266e-61 1.02865e-61 1.02537e-61 1.01831e-61 1.01014e-61 1.00427e-61 1.00425e-61 1.01312e-61 1.03289e-61 1.06403e-61 1.10532e-61 1.15391e-61 1.20567e-61 1.25572e-61 1.29902e-61 1.33101e-61 1.34806e-61 1.34773e-61 1.32888e-61 1.29148e-61 1.23645e-61 1.16543e-61 1.08057e-61 9.84504e-62 8.80277e-62 7.71295e-62 6.61219e-62 5.53749e-62 4.52347e-62 3.59934e-62 2.78633e-62 2.09625e-62 1.53132e-62 1.08541e-62 7.46055e-63 4.97068e-63 3.20918e-63 2.00734e-63 1.21635e-63 7.14002e-64 4.06049e-64 2.23745e-64 1.19485e-64 6.18538e-65 3.10484e-65 1.51174e-65 7.14229e-66 3.27559e-66 1.45885e-66 6.3123e-67 2.65466e-67 1.0856e-67 4.31879e-68 1.6722e-68 6.30441e-69 2.3154e-69 8.28766e-70 2.89236e-70 9.84648e-71 3.27118e-71 1.06099e-71 3.36107e-72 1.04037e-72 3.14784e-73 9.31372e-74 2.6958e-74 7.63604e-75 2.1175e-75 5.75055e-76 1.52995e-76 3.98906e-77 1.01962e-77 2.55573e-78 6.28408e-79 1.51617e-79 3.59056e-80 8.34859e-81 1.90643e-81 4.27664e-82 9.42639e-83 2.03869e-83 4.16293e-84 0 
0 4.07073e-119 3.46069e-118 2.87333e-117 2.36097e-116 1.92006e-115 1.54532e-114 1.23072e-113 9.69817e-113 7.56085e-112 5.83114e-111 4.44829e-110 3.35616e-109 2.50411e-108 1.84747e-107 1.3476e-106 9.71757e-106 6.92648e-105 4.87948e-104 3.39692e-103 2.33665e-102 1.58796e-101 1.06602e-100 7.06832e-100 4.62836e-99 2.99251e-98 1.91021e-97 1.20364e-96 7.48548e-96 4.59386e-95 2.78166e-94 1.6616e-93 9.78979e-93 5.68813e-92 3.25865e-91 1.84036e-90 1.02443e-89 5.61944e-89 3.03706e-88 1.61687e-87 8.47757e-87 4.37674e-86 2.22443e-85 1.11271e-84 5.47696e-84 2.65212e-83 1.2631e-82 5.91516e-82 2.72315e-81 1.23208e-80 5.47714e-80 2.39165e-79 1.02553e-78 4.31698e-78 1.78346e-77 7.22881e-77 2.87377e-76 1.12016e-75 4.27959e-75 1.60204e-74 5.87408e-74 2.10883e-73 7.41002e-73 2.54744e-72 8.56494e-72 2.81516e-71 9.04189e-71 2.83665e-70 8.68863e-70 2.59715e-69 7.57258e-69 2.15269e-68 5.9635e-68 1.6091e-67 4.22674e-67 1.0803e-66 2.68513e-66 6.48694e-66 1.5224e-65 3.46889e-65 7.66989e-65 1.64468e-64 3.41845e-64 6.88325e-64 1.34197e-63 2.53193e-63 4.62064e-63 8.15252e-63 1.39005e-62 2.28956e-62 3.64174e-62 5.5923e-62 8.28928e-62 1.18592e-61 1.63764e-61 2.18315e-61 2.8106e-61 3.49617e-61 4.20524e-61 4.89593e-61 5.52463e-61 6.05255e-61 6.45187e-61 6.71027e-61 6.83283e-61 6.84112e-61 6.7698e-61 6.66137e-61 6.56027e-61 6.5069e-61 6.53245e-61 6.65511e-61 6.87796e-61 7.18902e-61 7.56349e-61 7.96795e-61 8.36585e-61 8.72356e-61 9.01562e-61 9.22838e-61 9.36122e-61 9.42548e-61 9.44125e-61 9.43304e-61 9.42518e-61 9.4379e-61 9.48476e-61 9.57158e-61 9.69691e-61 9.85354e-61 1.00305e-60 1.02149e-60 1.03933e-60 1.05525e-60 1.06794e-60 1.07614e-60 1.07869e-60 1.07459e-60 1.06318e-60 1.04426e-60 1.0182e-60 9.85887e-61 9.48679e-61 9.08176e-61 8.66038e-61 8.23813e-61 7.82869e-61 7.44402e-61 7.09507e-61 6.79257e-61 6.54707e-61 6.36818e-61 6.26285e-61 6.23325e-61 6.27516e-61 6.37736e-61 6.52267e-61 6.69041e-61 6.85972e-61 7.01298e-61 7.13841e-61 7.23144e-61 7.29467e-61 7.33658e-61 7.36937e-61 7.40635e-61 7.45918e-61 7.53542e-61 7.63663e-61 7.75764e-61 7.88704e-61 8.0092e-61 8.10756e-61 8.16846e-61 8.18486e-61 8.15896e-61 8.10307e-61 8.0384e-61 7.99188e-61 7.99167e-61 8.06204e-61 8.21874e-61 8.46557e-61 8.79284e-61 9.17802e-61 9.58837e-61 9.9851e-61 1.03284e-60 1.05819e-60 1.07169e-60 1.07142e-60 1.05644e-60 1.02675e-60 9.83066e-61 9.26671e-61 8.59282e-61 7.82978e-61 7.00169e-61 6.13563e-61 5.26066e-61 4.4062e-61 3.59981e-61 2.86475e-61 2.21794e-61 1.66883e-61 1.21923e-61 8.64284e-62 5.94125e-62 3.95878e-62 2.55609e-62 1.59895e-62 9.68948e-63 5.68811e-63 3.23496e-63 1.78265e-63 9.52012e-64 4.92845e-64 2.47399e-64 1.20461e-64 5.69142e-65 2.61026e-65 1.16256e-65 5.03042e-66 2.11562e-66 8.65184e-67 3.44204e-67 1.33277e-67 5.0249e-68 1.84555e-68 6.60617e-69 2.30563e-69 7.84946e-70 2.60788e-70 8.45897e-71 2.67986e-71 8.29567e-72 2.51019e-72 7.42766e-73 2.15007e-73 6.09074e-74 1.68914e-74 4.58767e-75 1.22068e-75 3.18305e-76 8.13688e-77 2.03979e-77 5.01607e-78 1.21039e-78 2.86678e-79 6.66658e-80 1.52255e-80 3.41597e-81 7.53045e-82 1.62889e-82 3.3266e-83 0 
0 3.24708e-118 2.75973e-117 2.29071e-116 1.88172e-115 1.52989e-114 1.23097e-113 9.801e-113 7.72123e-112 6.01799e-111 4.64002e-110 3.53872e-109 2.66921e-108 1.99104e-107 1.46856e-106 1.07094e-105 7.72063e-105 5.50173e-104 3.87482e-103 2.69685e-102 1.85463e-101 1.26008e-100 8.45713e-100 5.60621e-99 3.67009e-98 2.37239e-97 1.51402e-96 9.53782e-96 5.93025e-95 3.6386e-94 2.20275e-93 1.31551e-92 7.74904e-92 4.50145e-91 2.57829e-90 1.45582e-89 8.10211e-89 4.44349e-88 2.40104e-87 1.27802e-86 6.69967e-86 3.45822e-85 1.75729e-84 8.78878e-84 4.32525e-83 2.09407e-82 9.97158e-82 4.66899e-81 2.14912e-80 9.72213e-80 4.32128e-79 1.88666e-78 8.0888e-78 3.40453e-77 1.40632e-76 5.69945e-76 2.26551e-75 8.82963e-75 3.37301e-74 1.26253e-73 4.62877e-73 1.6616e-72 5.838e-72 2.00683e-71 6.74678e-71 2.21739e-70 7.12145e-70 2.23402e-69 6.84237e-69 2.04517e-68 5.96285e-68 1.69501e-67 4.69542e-67 1.26689e-66 3.32775e-66 8.50505e-66 2.11393e-65 5.10689e-65 1.1985e-64 2.73085e-64 6.03802e-64 1.29475e-63 2.69112e-63 5.41875e-63 1.05646e-62 1.99326e-62 3.63763e-62 6.4182e-62 1.09436e-61 1.80254e-61 2.86715e-61 4.40291e-61 6.52642e-61 9.3373e-61 1.28942e-60 1.71899e-60 2.2131e-60 2.75303e-60 3.31152e-60 3.8556e-60 4.35097e-60 4.76706e-60 5.08199e-60 5.28602e-60 5.38315e-60 5.39031e-60 5.33473e-60 5.24984e-60 5.17057e-60 5.12869e-60 5.14872e-60 5.24497e-60 5.41988e-60 5.66407e-60 5.95809e-60 6.27567e-60 6.58815e-60 6.8691e-60 7.09854e-60 7.26574e-60 7.37021e-60 7.42083e-60 7.43338e-60 7.42709e-60 7.42103e-60 7.4311e-60 7.46793e-60 7.53609e-60 7.63444e-60 7.75733e-60 7.89616e-60 8.04083e-60 8.18082e-60 8.30568e-60 8.40524e-60 8.46961e-60 8.4896e-60 8.45745e-60 8.36793e-60 8.21948e-60 8.01488e-60 7.76122e-60 7.46906e-60 7.151e-60 6.82002e-60 6.48831e-60 6.16659e-60 5.86426e-60 5.58996e-60 5.35211e-60 5.15904e-60 5.01833e-60 4.93545e-60 4.91214e-60 4.94509e-60 5.0255e-60 5.13984e-60 5.27185e-60 5.40513e-60 5.52578e-60 5.62454e-60 5.6978e-60 5.7476e-60 5.78059e-60 5.80638e-60 5.83542e-60 5.87688e-60 5.93672e-60 6.01619e-60 6.11121e-60 6.21285e-60 6.30883e-60 6.38614e-60 6.43405e-60 6.44703e-60 6.42679e-60 6.38299e-60 6.33227e-60 6.29578e-60 6.29561e-60 6.35082e-60 6.47377e-60 6.66745e-60 6.92425e-60 7.22649e-60 7.54848e-60 7.85978e-60 8.12911e-60 8.32803e-60 8.4339e-60 8.43161e-60 8.31387e-60 8.08055e-60 7.73725e-60 7.29401e-60 6.76426e-60 6.16429e-60 5.51303e-60 4.83173e-60 4.14325e-60 3.47075e-60 2.83594e-60 2.25715e-60 1.74775e-60 1.3152e-60 9.60983e-61 6.81291e-61 4.68378e-61 3.12118e-61 2.01543e-61 1.26084e-61 7.64103e-62 4.48584e-62 2.55133e-62 1.40598e-62 7.50885e-63 3.88736e-63 1.95143e-63 9.50199e-64 4.48949e-64 2.05906e-64 9.17087e-65 3.96832e-65 1.66897e-65 6.82541e-66 2.71548e-66 1.05147e-66 3.96443e-67 1.45611e-67 5.21233e-68 1.81924e-68 6.19381e-69 2.05791e-69 6.67542e-70 2.11494e-70 6.54731e-71 1.98129e-71 5.86303e-72 1.69729e-72 4.80848e-73 1.33364e-73 3.62248e-74 9.63957e-75 2.51387e-75 6.42691e-76 1.61131e-76 3.96283e-77 9.56351e-78 2.26539e-78 5.26873e-79 1.20346e-79 2.70044e-80 5.95392e-81 1.28806e-81 2.63091e-82 0 
0 2.56274e-117 2.17752e-116 1.80695e-115 1.48393e-114 1.20615e-113 9.70222e-113 7.72285e-112 6.08245e-111 4.73946e-110 3.65329e-109 2.78546e-108 2.10049e-107 1.56642e-106 1.15507e-105 8.42117e-105 6.06946e-104 4.32402e-103 3.04462e-102 2.11852e-101 1.45656e-100 9.89387e-100 6.63875e-99 4.39978e-98 2.87964e-97 1.861e-96 1.18739e-95 7.47848e-95 4.6488e-94 2.85172e-93 1.72601e-92 1.03058e-91 6.06935e-91 3.52498e-90 2.01858e-89 1.13955e-88 6.34074e-88 3.47681e-87 1.87834e-86 9.99613e-86 5.23922e-85 2.70388e-84 1.37373e-83 6.86929e-83 3.38004e-82 1.63617e-81 7.78991e-81 3.6469e-80 1.6784e-79 7.59157e-79 3.37381e-78 1.47279e-77 6.31355e-77 2.65699e-76 1.0974e-75 4.44693e-75 1.76743e-74 6.88766e-74 2.63088e-73 9.84653e-73 3.60964e-72 1.29565e-71 4.55185e-71 1.56459e-70 5.25961e-70 1.7285e-69 5.55097e-69 1.74125e-68 5.33283e-68 1.5939e-67 4.64693e-67 1.3209e-66 3.65895e-66 9.87214e-66 2.59305e-65 6.6272e-65 1.64717e-64 3.97924e-64 9.33855e-64 2.12784e-63 4.70473e-63 1.00885e-62 2.09691e-62 4.22231e-62 8.23204e-62 1.55319e-61 2.83458e-61 5.0014e-61 8.52795e-61 1.40469e-60 2.23437e-60 3.43126e-60 5.08627e-60 7.27707e-60 1.00494e-59 1.33978e-59 1.72494e-59 2.14585e-59 2.58128e-59 3.00554e-59 3.39188e-59 3.71652e-59 3.96237e-59 4.12184e-59 4.19802e-59 4.20409e-59 4.16123e-59 4.09545e-59 4.03392e-59 4.00138e-59 4.01691e-59 4.09166e-59 4.22755e-59 4.41729e-59 4.64577e-59 4.8926e-59 5.13548e-59 5.35389e-59 5.5323e-59 5.66235e-59 5.74366e-59 5.78314e-59 5.79302e-59 5.78824e-59 5.78363e-59 5.79152e-59 5.82017e-59 5.87313e-59 5.94952e-59 6.04496e-59 6.15276e-59 6.26509e-59 6.37379e-59 6.47075e-59 6.54807e-59 6.59807e-59 6.61361e-59 6.58865e-59 6.51912e-59 6.40381e-59 6.24485e-59 6.04775e-59 5.8207e-59 5.57348e-59 5.31617e-59 5.05825e-59 4.80804e-59 4.57286e-59 4.35943e-59 4.17433e-59 4.02404e-59 3.91449e-59 3.84994e-59 3.83178e-59 3.85742e-59 3.92004e-59 4.0091e-59 4.11194e-59 4.21577e-59 4.30978e-59 4.38675e-59 4.44385e-59 4.48267e-59 4.50838e-59 4.52844e-59 4.55101e-59 4.58322e-59 4.62971e-59 4.69146e-59 4.76532e-59 4.84433e-59 4.91897e-59 4.97912e-59 5.01643e-59 5.02659e-59 5.01094e-59 4.97696e-59 4.93759e-59 4.90925e-59 4.90911e-59 4.95198e-59 5.04746e-59 5.19788e-59 5.39732e-59 5.63207e-59 5.88214e-59 6.12392e-59 6.33308e-59 6.48754e-59 6.56971e-59 6.56783e-59 6.47621e-59 6.29473e-59 6.0277e-59 5.68289e-59 5.2707e-59 4.80377e-59 4.29679e-59 3.76629e-59 3.23006e-59 2.70615e-59 2.21149e-59 1.76038e-59 1.36326e-59 1.026e-59 7.49756e-60 5.31598e-60 3.65502e-60 2.43585e-60 1.57302e-60 9.84139e-61 5.96452e-61 3.50179e-61 1.99174e-61 1.09765e-61 5.86231e-62 3.03502e-62 1.5236e-62 7.41889e-63 3.50532e-63 1.6077e-63 7.16066e-64 3.09852e-64 1.30317e-64 5.32953e-65 2.12038e-65 8.21056e-66 3.09575e-66 1.13707e-66 4.07042e-67 1.42073e-67 4.83721e-68 1.60724e-68 5.21377e-69 1.65193e-69 5.11424e-70 1.54772e-70 4.5803e-71 1.32604e-71 3.757e-72 1.0421e-72 2.83081e-73 7.53358e-74 1.96484e-74 5.02377e-75 1.25965e-75 3.09832e-76 7.47803e-77 1.77159e-77 4.1208e-78 9.41373e-79 2.11263e-79 4.65855e-80 1.00797e-80 2.05908e-81 0 
0 2.00107e-116 1.69982e-115 1.41017e-114 1.15776e-113 9.40788e-113 7.56562e-112 6.02054e-111 4.74048e-110 3.69282e-109 2.84577e-108 2.1692e-107 1.63536e-106 1.21924e-105 8.98835e-105 6.55142e-104 4.72069e-103 3.3623e-102 2.36688e-101 1.64653e-100 1.13178e-99 7.68592e-99 5.15601e-98 3.41631e-97 2.23545e-96 1.44435e-95 9.21347e-95 5.80158e-94 3.60561e-93 2.21132e-92 1.33812e-91 7.98803e-91 4.7034e-90 2.7311e-89 1.56365e-88 8.82556e-88 4.9098e-87 2.69167e-86 1.45389e-85 7.7359e-85 4.05385e-84 2.09176e-83 1.06255e-82 5.31236e-82 2.61352e-81 1.26492e-80 6.02143e-80 2.81855e-79 1.29697e-78 5.86552e-78 2.60636e-77 1.13762e-76 4.87612e-76 2.05181e-75 8.47342e-75 3.43325e-74 1.3644e-73 5.31648e-73 2.03054e-72 7.59893e-72 2.78545e-71 9.99726e-71 3.51195e-70 1.20706e-69 4.05746e-69 1.33335e-68 4.28171e-68 1.34304e-67 4.11306e-67 1.22928e-66 3.58378e-66 1.01867e-65 2.82168e-65 7.61297e-65 1.99962e-64 5.11048e-64 1.27018e-63 3.06852e-63 7.20128e-63 1.64086e-62 3.62804e-62 7.77984e-62 1.61707e-61 3.25616e-61 6.34852e-61 1.19784e-60 2.18612e-60 3.85733e-60 6.57735e-60 1.08342e-59 1.72339e-59 2.64664e-59 3.92331e-59 5.61334e-59 7.75211e-59 1.03353e-58 1.3307e-58 1.65548e-58 1.99149e-58 2.31892e-58 2.61716e-58 2.86785e-58 3.05781e-58 3.18118e-58 3.24032e-58 3.24538e-58 3.21266e-58 3.16221e-58 3.11494e-58 3.08991e-58 3.10183e-58 3.15928e-58 3.26376e-58 3.40967e-58 3.5854e-58 3.77525e-58 3.9621e-58 4.13014e-58 4.26744e-58 4.36755e-58 4.43019e-58 4.46065e-58 4.46835e-58 4.46476e-58 4.46128e-58 4.4674e-58 4.48945e-58 4.53018e-58 4.5889e-58 4.66225e-58 4.7451e-58 4.83142e-58 4.91496e-58 4.98948e-58 5.0489e-58 5.08734e-58 5.09929e-58 5.08012e-58 5.02668e-58 4.93803e-58 4.81581e-58 4.66424e-58 4.48961e-58 4.29943e-58 4.10146e-58 3.90297e-58 3.71038e-58 3.52933e-58 3.36498e-58 3.22241e-58 3.10663e-58 3.02221e-58 2.97246e-58 2.95845e-58 2.97821e-58 3.02647e-58 3.09512e-58 3.17441e-58 3.25448e-58 3.32698e-58 3.38634e-58 3.43039e-58 3.46033e-58 3.48016e-58 3.49561e-58 3.51296e-58 3.53773e-58 3.57347e-58 3.62096e-58 3.67777e-58 3.73857e-58 3.79602e-58 3.84233e-58 3.87108e-58 3.87896e-58 3.86697e-58 3.84089e-58 3.81064e-58 3.78886e-58 3.78874e-58 3.82168e-58 3.89507e-58 4.01068e-58 4.16398e-58 4.34442e-58 4.53664e-58 4.72248e-58 4.88325e-58 5.00195e-58 5.06507e-58 5.06354e-58 4.99299e-58 4.85328e-58 4.64771e-58 4.38224e-58 4.06482e-58 3.70516e-58 3.31455e-58 2.90572e-58 2.49236e-58 2.0884e-58 1.70689e-58 1.35889e-58 1.05249e-58 7.92205e-59 5.78976e-59 4.10555e-59 2.82306e-59 1.88157e-59 1.21517e-59 7.60305e-60 4.60821e-60 2.70563e-60 1.53896e-60 8.48151e-61 4.52993e-61 2.34527e-61 1.17736e-61 5.73301e-62 2.70879e-62 1.24239e-62 5.53358e-63 2.39448e-63 1.00707e-63 4.11861e-64 1.63862e-64 6.34516e-65 2.39244e-65 8.78764e-66 3.1458e-66 1.09803e-66 3.73861e-67 1.24225e-67 4.02993e-68 1.2769e-68 3.95335e-69 1.19646e-69 3.541e-70 1.02522e-70 2.90489e-71 8.05802e-72 2.1891e-72 5.82628e-73 1.51969e-73 3.88596e-74 9.74456e-75 2.39708e-75 5.78616e-76 1.37093e-76 3.18923e-77 7.28651e-78 1.63545e-78 3.6068e-79 7.80506e-80 1.59462e-80 0 