# vtk DataFile Version 3.0
Gray-Scott Simulation Output
ASCII
DATASET STRUCTURED_POINTS
DIMENSIONS 256 256 1
SPACING 1.0 1.0 1.0
ORIGIN 0 0 0
POINT_DATA 65536
SCALARS u double
LOOKUP_TABLE default
0 0 0 0 0 0 0 0 0 0 0 0 0 0 0 0 0 0 0 0 0 0 0 0 0 0 0 0 0 0 0 0 0 0 0 0 0 0 0 0 0 0 0 0 0 0 0 0 0 0 0 0 0 0 0 0 0 0 0 0 0 0 0 0 0 0 0 0 0 0 0 0 0 0 0 0 0 0 0 0 0 0 0 0 0 0 0 0 0 0 0 0 0 0 0 0 0 0 0 0 0 0 0 0 0 0 0 0 0 0 0 0 0 0 0 0 0 0 0 0 0 0 0 0 0 0 0 0 0 0 0 0 0 0 0 0 0 0 0 0 0 0 0 0 0 0 0 0 0 0 0 0 0 0 0 0 0 0 0 0 0 0 0 0 0 0 0 0 0 0 0 0 0 0 0 0 0 0 0 0 0 0 0 0 0 0 0 0 0 0 0 0 0 0 0 0 0 0 0 0 0 0 0 0 0 0 0 0 0 0 0 0 0 0 0 0 0 0 0 0 0 0 0 0 0 0 0 0 0 0 0 0 0 0 0 0 0 0 0 0 0 0 0 0 0 0 0 0 0 0 0 0 0 0 0 0 
0 5.44163e-206 1.56701e-204 4.45635e-203 1.2529e-201 3.48208e-200 9.56532e-199 2.59688e-197 6.96707e-196 1.8469e-194 4.83705e-193 1.25145e-191 3.19808e-190 8.07147e-189 2.01165e-187 4.95027e-186 1.20262e-184 2.88396e-183 6.8258e-182 1.59427e-180 3.67406e-179 8.35308e-178 1.87325e-176 4.14311e-175 9.03583e-174 1.9429e-172 4.11813e-171 8.60285e-170 1.77093e-168 3.59165e-167 7.17535e-166 1.41177e-164 2.73508e-163 5.21642e-162 9.79224e-161 1.80885e-159 3.28731e-158 5.87617e-157 1.03291e-155 1.78499e-154 3.03188e-153 5.06025e-152 8.29666e-151 1.33593e-149 2.11198e-148 3.27712e-147 4.98953e-146 7.45164e-145 1.09126e-143 1.56653e-142 2.20359e-141 3.0363e-140 4.09652e-139 5.40966e-138 6.98922e-137 8.83091e-136 1.0907e-134 1.31622e-133 1.55116e-132 1.78433e-131 2.0024e-130 2.19099e-129 2.3361e-128 2.42571e-127 2.45134e-126 2.4093e-125 2.30141e-124 2.13494e-123 1.92188e-122 1.67746e-121 1.41834e-120 1.16066e-119 9.18334e-119 7.01787e-118 5.17411e-117 3.67599e-116 2.51344e-115 1.65168e-114 1.04163e-113 6.29443e-113 3.63847e-112 2.00824e-111 1.05632e-110 5.28369e-110 2.50753e-109 1.12626e-108 4.77462e-108 1.90486e-107 7.12878e-107 2.49388e-106 8.12438e-106 2.45453e-105 6.84665e-105 1.75497e-104 4.11331e-104 8.77142e-104 1.69361e-103 2.94848e-103 4.61494e-103 6.48944e-103 8.21962e-103 9.44399e-103 9.96316e-103 9.81615e-103 9.21171e-103 8.38689e-103 7.50671e-103 6.65579e-103 5.88795e-103 5.27409e-103 4.91576e-103 4.92395e-103 5.38215e-103 6.3085e-103 7.62058e-103 9.12002e-103 1.05309e-102 1.15926e-102 1.21513e-102 1.2194e-102 1.18257e-102 1.12212e-102 1.05671e-102 1.00059e-102 9.61086e-103 9.41418e-103 9.44974e-103 9.74672e-103 1.02742e-102 1.09106e-102 1.1491e-102 1.18985e-102 1.21284e-102 1.22796e-102 1.24832e-102 1.28151e-102 1.32393e-102 1.36041e-102 1.37034e-102 1.33891e-102 1.2669e-102 1.17061e-102 1.07151e-102 9.84723e-103 9.15382e-103 8.62462e-103 8.22627e-103 7.90182e-103 7.56599e-103 7.13934e-103 6.60616e-103 6.04558e-103 5.61285e-103 5.47771e-103 5.73876e-103 6.35328e-103 7.13548e-103 7.84331e-103 8.30252e-103 8.47694e-103 8.44223e-103 8.3084e-103 8.15785e-103 8.02048e-103 7.87874e-103 7.70426e-103 7.51394e-103 7.39962e-103 7.49174e-103 7.87306e-103 8.50698e-103 9.23817e-103 9.86686e-103 1.02375e-102 1.02762e-102 9.97731e-103 9.38781e-103 8.61391e-103 7.81895e-103 7.18856e-103 6.87682e-103 6.9675e-103 7.47174e-103 8.35286e-103 9.54661e-103 1.09528e-102 1.24108e-102 1.36994e-102 1.4591e-102 1.49353e-102 1.47221e-102 1.40851e-102 1.3242e-102 1.23871e-102 1.15889e-102 1.07685e-102 9.78141e-103 8.54133e-103 7.0855e-103 5.5456e-103 4.07493e-103 2.79554e-103 1.7789e-103 1.04355e-103 5.61876e-104 2.77105e-104 1.25187e-104 5.1894e-105 1.97929e-105 6.9691e-106 2.27336e-106 6.89538e-107 1.95154e-107 5.17118e-108 1.287e-108 3.01743e-109 6.68287e-110 1.40177e-110 2.7913e-111 5.28831e-112 9.55199e-113 1.64802e-113 2.72078e-114 4.30521e-115 6.53935e-116 9.54848e-117 1.34206e-117 1.818e-118 2.37634e-119 3.00052e-120 3.66358e-121 4.32975e-122 4.95756e-123 5.50427e-124 5.93085e-125 6.20668e-126 6.31318e-127 6.24582e-128 6.01415e-129 5.64001e-130 5.1543e-131 4.59298e-132 3.99297e-133 3.38847e-134 2.80826e-135 2.27409e-136 1.80017e-137 1.39365e-138 1.05562e-139 7.82636e-141 5.68169e-142 4.04042e-143 2.81557e-144 1.92328e-145 1.28287e-146 0 
0 1.56713e-204 4.50731e-203 1.28026e-201 3.59506e-200 9.97934e-199 2.73802e-197 7.42445e-196 1.98947e-194 5.26752e-193 1.37791e-191 3.56067e-190 9.08836e-189 2.29102e-187 5.70306e-186 1.40173e-184 3.40131e-183 8.14687e-182 1.92592e-180 4.49293e-179 1.03419e-177 2.34848e-176 5.26045e-175 1.16209e-173 2.53146e-172 5.43679e-171 1.15102e-169 2.40168e-168 4.93816e-167 1.00035e-165 1.99616e-164 3.92292e-163 7.5912e-162 1.44614e-160 2.71154e-159 5.00305e-158 9.08178e-157 1.62153e-155 2.84703e-154 4.91438e-153 8.33769e-152 1.38998e-150 2.27638e-149 3.66126e-148 5.78153e-147 8.96093e-146 1.36279e-144 2.03297e-143 2.97383e-142 4.2642e-141 5.9916e-140 8.24651e-139 1.11136e-137 1.46597e-136 1.89191e-135 2.38778e-134 2.94588e-133 3.55104e-132 4.1803e-131 4.8034e-130 5.38453e-129 5.88522e-128 6.26817e-127 6.50154e-126 6.56311e-125 6.44359e-124 6.14842e-123 5.69758e-122 5.12349e-121 4.46714e-120 3.77309e-119 3.08436e-118 2.43782e-117 1.86103e-116 1.37066e-115 9.72791e-115 6.64455e-114 4.36194e-113 2.74807e-112 1.65894e-111 9.57984e-111 5.2823e-110 2.77572e-109 1.38706e-108 6.57641e-108 2.95101e-107 1.24987e-106 4.98187e-106 1.86276e-105 6.51087e-105 2.11927e-104 6.3975e-104 1.78313e-103 4.56726e-103 1.06975e-102 2.27978e-102 4.39945e-102 7.6557e-102 1.19783e-101 1.68393e-101 2.13257e-101 2.45011e-101 2.58487e-101 2.5469e-101 2.39027e-101 2.17638e-101 1.94808e-101 1.72736e-101 1.52824e-101 1.3691e-101 1.27628e-101 1.27851e-101 1.39744e-101 1.63774e-101 1.978e-101 2.36679e-101 2.73261e-101 3.00793e-101 3.15284e-101 3.16398e-101 3.06856e-101 2.91188e-101 2.74236e-101 2.5969e-101 2.49455e-101 2.44367e-101 2.453e-101 2.53004e-101 2.66671e-101 2.83158e-101 2.98194e-101 3.08758e-101 3.14726e-101 3.18657e-101 3.2394e-101 3.32545e-101 3.43536e-101 3.52988e-101 3.55558e-101 3.47415e-101 3.28758e-101 3.038e-101 2.781e-101 2.55575e-101 2.37567e-101 2.23817e-101 2.13464e-101 2.05032e-101 1.96309e-101 1.85235e-101 1.71403e-101 1.56861e-101 1.45637e-101 1.42129e-101 1.48896e-101 1.64829e-101 1.85114e-101 2.03477e-101 2.15401e-101 2.19941e-101 2.19056e-101 2.15596e-101 2.11697e-101 2.08136e-101 2.0446e-101 1.99934e-101 1.95e-101 1.9204e-101 1.94433e-101 2.04323e-101 2.20762e-101 2.39723e-101 2.5603e-101 2.65648e-101 2.6666e-101 2.58913e-101 2.4363e-101 2.23563e-101 2.0295e-101 1.86599e-101 1.78508e-101 1.80851e-101 1.93921e-101 2.16771e-101 2.4773e-101 2.84197e-101 3.21999e-101 3.55407e-101 3.78523e-101 3.87457e-101 3.81943e-101 3.65446e-101 3.43603e-101 3.21436e-101 3.00723e-101 2.79423e-101 2.53797e-101 2.21613e-101 1.83839e-101 1.43887e-101 1.05732e-101 7.25412e-102 4.61673e-102 2.70893e-102 1.45907e-102 7.19895e-103 3.25397e-103 1.3497e-103 5.15137e-104 1.81513e-104 5.92566e-105 1.79879e-105 5.09526e-106 1.35133e-106 3.3662e-107 7.89945e-108 1.75118e-108 3.67669e-109 7.32838e-110 1.38977e-110 2.51276e-111 4.33965e-112 7.17169e-113 1.13597e-113 1.72723e-114 2.52463e-115 3.55212e-116 4.81684e-117 6.30279e-118 7.96669e-119 9.73751e-120 1.15204e-120 1.3205e-121 1.46769e-122 1.58315e-123 1.65857e-124 1.68886e-125 1.67266e-126 1.61238e-127 1.51373e-128 1.38489e-129 1.23543e-130 1.07523e-131 9.13462e-133 7.5789e-134 6.14412e-135 4.86914e-136 3.77378e-137 2.86167e-138 2.12402e-139 1.54371e-140 1.09902e-141 7.66723e-143 5.24333e-144 3.50135e-145 0 
0 4.45703e-203 1.28036e-201 3.6323e-200 1.01874e-198 2.82443e-197 7.73996e-196 2.09624e-194 5.61033e-193 1.48366e-191 3.87637e-190 1.00049e-188 2.55061e-187 6.42195e-186 1.59671e-184 3.9198e-183 9.50006e-182 2.27276e-180 5.36641e-179 1.25043e-177 2.87484e-176 6.52058e-175 1.45884e-173 3.21894e-172 7.00376e-171 1.50242e-169 3.17703e-168 6.62133e-167 1.35983e-165 2.75147e-164 5.48403e-163 1.07649e-161 2.08068e-160 3.95913e-159 7.41484e-158 1.36653e-156 2.47772e-155 4.41881e-154 7.74949e-153 1.33614e-151 2.26428e-150 3.77048e-149 6.16788e-148 9.90893e-147 1.56295e-145 2.4197e-144 3.67574e-143 5.47715e-142 8.00296e-141 1.14626e-139 1.60879e-138 2.21177e-137 2.97741e-136 3.92305e-135 5.05727e-134 6.37571e-133 7.85717e-132 9.46079e-131 1.1125e-129 1.27692e-128 1.42984e-127 1.56108e-126 1.66085e-125 1.72081e-124 1.73523e-123 1.70179e-122 1.62208e-121 1.50153e-120 1.34879e-119 1.17475e-118 9.91183e-118 8.09399e-117 6.39062e-116 4.87348e-115 3.58562e-114 2.54216e-113 1.73461e-112 1.13755e-111 7.15942e-111 4.3176e-110 2.49078e-109 1.37205e-108 7.20271e-108 3.59579e-107 1.70322e-106 7.63556e-106 3.23096e-105 1.28665e-104 4.8066e-104 1.67858e-103 5.45912e-103 1.64662e-102 4.58596e-102 1.17377e-101 2.74736e-101 5.85136e-101 1.12856e-100 1.96297e-100 3.0702e-100 4.31504e-100 5.46388e-100 6.27713e-100 6.62255e-100 6.52575e-100 6.1249e-100 5.57721e-100 4.99243e-100 4.42708e-100 3.91714e-100 3.50975e-100 3.27229e-100 3.27831e-100 3.58314e-100 4.19868e-100 5.07005e-100 6.06556e-100 7.00223e-100 7.70725e-100 8.07845e-100 8.10715e-100 7.86302e-100 7.46201e-100 7.02809e-100 6.65582e-100 6.39398e-100 6.264e-100 6.28817e-100 6.4855e-100 6.83524e-100 7.25701e-100 7.6417e-100 7.91208e-100 8.06504e-100 8.16593e-100 8.30137e-100 8.52165e-100 8.8029e-100 9.04467e-100 9.11038e-100 8.90206e-100 8.42472e-100 7.78593e-100 7.12774e-100 6.55046e-100 6.08859e-100 5.7358e-100 5.47011e-100 5.2537e-100 5.02994e-100 4.74611e-100 4.39171e-100 4.01921e-100 3.73168e-100 3.64179e-100 3.815e-100 4.22296e-100 4.74244e-100 5.2129e-100 5.51863e-100 5.63537e-100 5.61309e-100 5.52473e-100 5.42503e-100 5.33388e-100 5.2397e-100 5.12378e-100 4.99747e-100 4.92177e-100 4.98317e-100 5.23649e-100 5.65743e-100 6.143e-100 6.5607e-100 6.80719e-100 6.8333e-100 6.63504e-100 6.24374e-100 5.72995e-100 5.20209e-100 4.78331e-100 4.57592e-100 4.6357e-100 4.97027e-100 5.55539e-100 6.34828e-100 7.28214e-100 8.25002e-100 9.10531e-100 9.69713e-100 9.92603e-100 9.78522e-100 9.36335e-100 8.80449e-100 8.23695e-100 7.70618e-100 7.16003e-100 6.50305e-100 5.67823e-100 4.71033e-100 3.68671e-100 2.70919e-100 1.85888e-100 1.18321e-100 6.94433e-101 3.74157e-101 1.84688e-101 8.35243e-102 3.46657e-102 1.32397e-102 4.66851e-103 1.52527e-103 4.63385e-104 1.3137e-104 3.48715e-105 8.69442e-106 2.04219e-106 4.53145e-107 9.52307e-108 1.89998e-108 3.60668e-109 6.52747e-110 1.12845e-110 1.86676e-111 2.95988e-112 4.5051e-113 6.59173e-114 9.2841e-115 1.26029e-115 1.6508e-116 2.08881e-117 2.55582e-118 3.027e-119 3.47333e-120 3.86466e-121 4.17316e-122 4.3767e-123 4.46148e-124 4.4235e-125 4.26875e-126 4.01198e-127 3.67454e-128 3.2816e-129 2.85923e-130 2.43175e-131 2.01985e-132 1.63929e-133 1.30057e-134 1.00913e-135 7.66083e-137 5.69251e-138 4.14192e-139 2.95211e-140 2.06185e-141 1.41162e-142 9.43705e-144 0 
0 1.25319e-201 3.59563e-200 1.01882e-198 2.85398e-197 7.90301e-196 2.16309e-194 5.85129e-193 1.56414e-191 4.13139e-190 1.07812e-188 2.77928e-187 7.07689e-186 1.77969e-184 4.41961e-183 1.08369e-181 2.6233e-180 6.26841e-179 1.47833e-177 3.44058e-176 7.90083e-175 1.78991e-173 3.99982e-172 8.81521e-171 1.91575e-169 4.10478e-168 8.66981e-167 1.80478e-165 3.70218e-164 7.48219e-163 1.48956e-161 2.92053e-160 5.63837e-159 1.07163e-157 2.00468e-156 3.69028e-155 6.68332e-154 1.19054e-152 2.08552e-151 3.59165e-150 6.07961e-149 1.01122e-147 1.6523e-146 2.65147e-145 4.17745e-144 6.46004e-143 9.80227e-142 1.45897e-140 2.12938e-139 3.04648e-138 4.27098e-137 5.86518e-136 7.8867e-135 1.038e-133 1.33661e-132 1.6832e-131 2.07202e-130 2.49216e-129 2.92732e-128 3.35627e-127 3.75408e-126 4.09421e-125 4.35113e-124 4.50333e-123 4.53614e-122 4.44393e-121 4.23125e-120 3.91259e-119 3.51085e-118 3.05458e-117 2.57454e-116 2.10015e-115 1.65644e-114 1.26188e-113 9.27453e-113 6.56873e-112 4.47749e-111 2.93333e-110 1.84428e-109 1.1111e-108 6.40344e-108 3.52386e-107 1.84807e-106 9.21715e-106 4.36171e-105 1.95352e-104 8.25858e-104 3.28579e-103 1.22639e-102 4.27914e-102 1.3905e-101 4.19075e-101 1.16625e-100 2.98284e-100 6.97698e-100 1.48505e-99 2.8627e-99 4.97697e-99 7.78149e-99 1.09338e-98 1.38428e-98 1.59024e-98 1.67779e-98 1.65339e-98 1.55196e-98 1.41328e-98 1.26517e-98 1.12197e-98 9.92839e-99 8.89715e-99 8.29644e-99 8.31242e-99 9.08501e-99 1.06441e-98 1.28507e-98 1.53713e-98 1.77428e-98 1.9528e-98 2.04682e-98 2.05414e-98 1.99237e-98 1.89088e-98 1.78106e-98 1.68685e-98 1.62061e-98 1.58778e-98 1.59397e-98 1.64395e-98 1.73245e-98 1.83914e-98 1.93645e-98 2.00489e-98 2.04366e-98 2.06926e-98 2.10358e-98 2.15935e-98 2.23051e-98 2.29166e-98 2.30827e-98 2.25558e-98 2.13482e-98 1.97315e-98 1.80647e-98 1.66017e-98 1.54304e-98 1.45353e-98 1.3861e-98 1.33118e-98 1.27443e-98 1.20249e-98 1.1127e-98 1.01835e-98 9.45509e-99 9.22726e-99 9.66567e-99 1.06986e-98 1.20141e-98 1.3206e-98 1.39812e-98 1.4278e-98 1.42226e-98 1.39995e-98 1.37474e-98 1.35167e-98 1.32781e-98 1.29845e-98 1.26647e-98 1.24733e-98 1.2629e-98 1.32706e-98 1.43365e-98 1.55661e-98 1.66241e-98 1.72487e-98 1.73153e-98 1.68136e-98 1.5823e-98 1.45221e-98 1.31855e-98 1.21249e-98 1.15993e-98 1.17501e-98 1.25969e-98 1.40786e-98 1.60865e-98 1.84512e-98 2.09017e-98 2.30668e-98 2.45651e-98 2.5145e-98 2.47895e-98 2.37227e-98 2.23088e-98 2.0872e-98 1.95271e-98 1.81424e-98 1.64769e-98 1.43866e-98 1.19342e-98 9.34083e-99 6.86437e-99 4.71025e-99 2.99861e-99 1.76031e-99 9.48765e-100 4.68525e-100 2.11999e-100 8.80408e-101 3.36475e-101 1.18732e-101 3.88213e-102 1.18037e-102 3.34919e-103 8.898e-104 2.2205e-104 5.22041e-105 1.15945e-105 2.43895e-106 4.87071e-107 9.255e-108 1.67665e-108 2.90143e-109 4.80458e-110 7.62572e-111 1.16186e-111 1.70176e-112 2.39932e-113 3.26038e-114 4.27514e-115 5.41516e-116 6.63286e-117 7.86402e-118 9.03322e-119 1.00617e-119 1.08766e-120 1.14194e-121 1.16533e-122 1.15667e-123 1.11742e-124 1.05135e-125 9.63985e-127 8.6185e-128 7.51749e-129 6.40066e-130 5.32238e-131 4.32441e-132 3.4347e-133 2.668e-134 2.0277e-135 1.50841e-136 1.09877e-137 7.84021e-139 5.48205e-140 3.75748e-141 2.5148e-142 0 
0 3.48317e-200 9.98172e-199 2.82488e-197 7.90365e-196 2.18596e-194 5.97586e-193 1.61456e-191 4.31075e-190 1.13724e-188 2.96414e-187 7.63209e-186 1.94104e-184 4.87547e-183 1.20931e-181 2.96169e-180 7.16088e-179 1.70907e-177 4.02587e-176 9.35846e-175 2.1465e-173 4.85709e-172 1.08411e-170 2.38646e-169 5.18026e-168 1.10864e-166 2.33885e-165 4.86306e-164 9.96405e-163 2.01141e-161 3.99968e-160 7.83293e-159 1.51047e-157 2.86748e-156 5.35795e-155 9.85173e-154 1.78216e-152 3.17102e-151 5.54843e-150 9.54448e-149 1.61376e-147 2.6811e-146 4.37585e-145 7.01399e-144 1.10382e-142 1.70502e-141 2.58423e-140 3.84204e-139 5.60118e-138 8.00455e-137 1.12093e-135 1.53762e-134 2.06528e-133 2.71517e-132 3.4924e-131 4.39312e-130 5.40196e-129 6.49016e-128 7.61505e-127 8.72135e-126 9.74444e-125 1.06157e-123 1.12696e-122 1.16512e-121 1.17235e-120 1.14728e-119 1.0912e-118 1.00794e-117 9.03487e-117 7.85237e-116 6.61134e-115 5.38746e-114 4.24477e-113 3.23031e-112 2.37175e-111 1.67807e-110 1.14267e-109 7.4783e-109 4.6971e-108 2.82697e-107 1.6276e-106 8.94797e-106 4.68815e-105 2.33593e-104 1.10435e-103 4.9415e-103 2.08711e-102 8.29631e-102 3.09377e-101 1.07855e-100 3.5018e-100 1.05453e-99 2.93243e-99 7.49462e-99 1.75184e-98 3.72652e-98 7.17965e-98 1.24766e-97 1.95002e-97 2.73928e-97 3.46758e-97 3.98332e-97 4.20277e-97 4.14195e-97 3.88818e-97 3.541e-97 3.17009e-97 2.81149e-97 2.48817e-97 2.23005e-97 2.07981e-97 2.08399e-97 2.27759e-97 2.66806e-97 3.22053e-97 3.85153e-97 4.44521e-97 4.89215e-97 5.12763e-97 5.14605e-97 4.99154e-97 4.7376e-97 4.46279e-97 4.22705e-97 4.06137e-97 3.97937e-97 3.99505e-97 4.12022e-97 4.34162e-97 4.60846e-97 4.85187e-97 5.02314e-97 5.12027e-97 5.18449e-97 5.27051e-97 5.41008e-97 5.58809e-97 5.74102e-97 5.78255e-97 5.65077e-97 5.3487e-97 4.94417e-97 4.52684e-97 4.16025e-97 3.86656e-97 3.64202e-97 3.47282e-97 3.335e-97 3.19266e-97 3.01239e-97 2.78748e-97 2.55115e-97 2.36871e-97 2.31161e-97 2.42133e-97 2.6799e-97 3.00931e-97 3.30786e-97 3.50222e-97 3.57683e-97 3.56321e-97 3.50752e-97 3.44448e-97 3.38675e-97 3.327e-97 3.25346e-97 3.17342e-97 3.12555e-97 3.16461e-97 3.32527e-97 3.59213e-97 3.89999e-97 4.16495e-97 4.32147e-97 4.33827e-97 4.21275e-97 3.96478e-97 3.63913e-97 3.30451e-97 3.03891e-97 2.90719e-97 2.9448e-97 3.15674e-97 3.52769e-97 4.03044e-97 4.62247e-97 5.23588e-97 5.7778e-97 6.15282e-97 6.29808e-97 6.20934e-97 5.94262e-97 5.58894e-97 5.2293e-97 4.89237e-97 4.54527e-97 4.1278e-97 3.60402e-97 2.98964e-97 2.34001e-97 1.71968e-97 1.18011e-97 7.5138e-98 4.41195e-98 2.37873e-98 1.17519e-98 5.3203e-99 2.21078e-99 8.45482e-100 2.98561e-100 9.76942e-101 2.97282e-101 8.44217e-102 2.24483e-102 5.60699e-103 1.31941e-103 2.93312e-104 6.17578e-105 1.23452e-105 2.34804e-106 4.25792e-107 7.37564e-108 1.22258e-108 1.94242e-109 2.96251e-110 4.34357e-111 6.13036e-112 8.33908e-113 1.0946e-113 1.38794e-114 1.70184e-115 2.01987e-116 2.32265e-117 2.58987e-118 2.80263e-119 2.94567e-120 3.00924e-121 2.99012e-122 2.8918e-123 2.7238e-124 2.50019e-125 2.23775e-126 1.95403e-127 1.66557e-128 1.38652e-129 1.12779e-130 8.96756e-132 6.97359e-133 5.30591e-134 3.95151e-135 2.88163e-136 2.05849e-137 1.44097e-138 9.88779e-140 6.62514e-141 0 
0 9.56912e-199 2.7389e-197 7.74185e-196 2.16345e-194 5.97636e-193 1.63181e-191 4.4035e-190 1.17429e-188 3.09423e-187 8.05524e-186 2.07159e-184 5.26229e-183 1.3202e-181 3.2707e-180 8.00067e-179 1.93213e-177 4.6059e-176 1.08368e-174 2.51612e-173 5.76428e-172 1.3028e-170 2.90445e-169 6.38608e-168 1.38459e-166 2.95974e-165 6.23672e-164 1.29526e-162 2.65079e-161 5.34485e-160 1.06159e-158 2.07659e-157 3.99977e-156 7.58441e-155 1.41553e-153 2.59976e-152 4.6975e-151 8.34876e-150 1.45913e-148 2.50716e-147 4.2342e-146 7.02671e-145 1.14553e-143 1.83408e-142 2.88309e-141 4.44837e-140 6.7346e-139 1.00012e-137 1.45641e-136 2.079e-135 2.90812e-134 3.98472e-133 5.34618e-132 7.02069e-131 9.02041e-130 1.13343e-128 1.39218e-127 1.67079e-126 1.95823e-125 2.24027e-124 2.50034e-123 2.72095e-122 2.88542e-121 2.9799e-120 2.99515e-119 2.92796e-118 2.78186e-117 2.56688e-116 2.29842e-115 1.99549e-114 1.67834e-113 1.36622e-112 1.07532e-111 8.17475e-111 5.99584e-110 4.23786e-109 2.88277e-108 1.88475e-107 1.18261e-106 7.11049e-106 4.08974e-105 2.24618e-104 1.1757e-103 5.85246e-103 2.76421e-102 1.23571e-101 5.21438e-101 2.07086e-100 7.71561e-100 2.68749e-99 8.7184e-99 2.62335e-98 7.28938e-98 1.86165e-97 4.34863e-97 9.24479e-97 1.78018e-96 3.09216e-96 4.83114e-96 6.78485e-96 8.58753e-96 9.86433e-96 1.04081e-95 1.02583e-95 9.6306e-96 8.77132e-96 7.85304e-96 6.96523e-96 6.16489e-96 5.5262e-96 5.15467e-96 5.16546e-96 5.64509e-96 6.61186e-96 7.97937e-96 9.54107e-96 1.10104e-95 1.21166e-95 1.26996e-95 1.27455e-95 1.23634e-95 1.17352e-95 1.10554e-95 1.04722e-95 1.00626e-95 9.8601e-96 9.89935e-96 1.02092e-95 1.07568e-95 1.14166e-95 1.20185e-95 1.24423e-95 1.26829e-95 1.28421e-95 1.30552e-95 1.34006e-95 1.38408e-95 1.42189e-95 1.43215e-95 1.39957e-95 1.32487e-95 1.2248e-95 1.1215e-95 1.03069e-95 9.57885e-96 9.02197e-96 8.60223e-96 8.26033e-96 7.9074e-96 7.46075e-96 6.90375e-96 6.31854e-96 5.86678e-96 5.72528e-96 5.99672e-96 6.63668e-96 7.45214e-96 8.19153e-96 8.67328e-96 8.85873e-96 8.82564e-96 8.6882e-96 8.5324e-96 8.38955e-96 8.24161e-96 8.05954e-96 7.86147e-96 7.74312e-96 7.83994e-96 8.23767e-96 8.89819e-96 9.66024e-96 1.03163e-95 1.0704e-95 1.07459e-95 1.04354e-95 9.8218e-96 9.01587e-96 8.18763e-96 7.5301e-96 7.20377e-96 7.29653e-96 7.82088e-96 8.73904e-96 9.98352e-96 1.14489e-95 1.29669e-95 1.43079e-95 1.52359e-95 1.55956e-95 1.53766e-95 1.47173e-95 1.38427e-95 1.29528e-95 1.21183e-95 1.12581e-95 1.02235e-95 8.926e-96 7.40434e-96 5.79548e-96 4.25925e-96 2.92308e-96 1.8614e-96 1.09323e-96 5.89617e-97 2.9142e-97 1.32e-97 5.48835e-98 2.10033e-98 7.42213e-99 2.4305e-99 7.40192e-100 2.10375e-100 5.59884e-101 1.39968e-101 3.29666e-102 7.33545e-103 1.54596e-103 3.09329e-104 5.88909e-105 1.06897e-105 1.85353e-106 3.07547e-107 4.89119e-108 7.46745e-109 1.09598e-109 1.54843e-110 2.1085e-111 2.77052e-112 3.51668e-113 4.31656e-114 5.12863e-115 5.90369e-116 6.58994e-117 7.13894e-118 7.51137e-119 7.68175e-120 7.6412e-121 7.398e-122 6.97581e-123 6.41013e-124 5.74356e-125 5.02087e-126 4.28439e-127 3.57052e-128 2.90748e-129 2.31443e-130 1.80182e-131 1.37246e-132 1.02327e-133 7.47051e-135 5.34256e-136 3.74407e-137 2.57205e-138 1.72529e-139 0 
0 2.59814e-197 7.42747e-196 2.09693e-194 5.85275e-193 1.61483e-191 4.40388e-190 1.18698e-188 3.16153e-187 8.32056e-186 2.16351e-184 5.5573e-183 1.40999e-181 3.53315e-180 8.74275e-179 2.13608e-177 5.15243e-176 1.2268e-174 2.88301e-173 6.68597e-172 1.52991e-170 3.45373e-169 7.69066e-168 1.68898e-166 3.65765e-165 7.80955e-164 1.6437e-162 3.4097e-161 6.96995e-160 1.40374e-158 2.78485e-157 5.44119e-156 1.04683e-154 1.98272e-153 3.69623e-152 6.78069e-151 1.2238e-149 2.17254e-148 3.79266e-147 6.5093e-146 1.09807e-144 1.82019e-143 2.96401e-142 4.74022e-141 7.443e-140 1.1471e-138 1.73469e-137 2.57322e-136 3.74301e-135 5.33711e-134 7.45726e-133 1.02066e-131 1.36787e-130 1.79432e-129 2.30285e-128 2.89039e-127 3.54633e-126 4.25137e-125 4.97732e-124 5.68797e-123 6.34139e-122 6.89341e-121 7.3022e-120 7.53317e-119 7.56358e-118 7.38601e-117 7.00998e-116 6.46136e-115 5.77948e-114 5.01244e-113 4.21138e-112 3.42459e-111 2.69261e-110 2.04485e-109 1.49827e-108 1.05789e-107 7.1889e-107 4.69532e-106 2.94318e-105 1.76783e-104 1.0158e-103 5.57354e-103 2.91449e-102 1.44939e-101 6.83924e-101 3.05456e-100 1.28776e-99 5.10966e-99 1.90208e-98 6.61962e-98 2.14566e-97 6.45111e-97 1.79117e-96 4.57122e-96 1.06708e-95 2.26714e-95 4.36329e-95 7.57558e-95 1.18318e-94 1.66125e-94 2.10233e-94 2.41481e-94 2.54801e-94 2.51153e-94 2.35806e-94 2.14784e-94 1.9231e-94 1.70582e-94 1.50998e-94 1.35375e-94 1.26293e-94 1.26568e-94 1.38314e-94 1.61976e-94 1.95437e-94 2.33645e-94 2.69591e-94 2.96659e-94 3.10928e-94 3.12058e-94 3.02718e-94 2.87356e-94 2.7073e-94 2.5647e-94 2.46457e-94 2.41515e-94 2.42486e-94 2.50071e-94 2.63459e-94 2.79586e-94 2.94299e-94 3.04662e-94 3.10553e-94 3.14457e-94 3.19675e-94 3.28121e-94 3.38883e-94 3.48123e-94 3.50631e-94 3.42668e-94 3.2441e-94 2.99938e-94 2.74661e-94 2.52425e-94 2.34584e-94 2.20932e-94 2.10638e-94 2.02253e-94 1.93603e-94 1.82663e-94 1.69027e-94 1.54702e-94 1.43642e-94 1.40176e-94 1.46814e-94 1.62472e-94 1.82428e-94 2.0053e-94 2.12334e-94 2.16891e-94 2.16097e-94 2.12744e-94 2.08937e-94 2.05443e-94 2.01822e-94 1.97366e-94 1.9252e-94 1.89628e-94 1.92e-94 2.01733e-94 2.17895e-94 2.36542e-94 2.52599e-94 2.62094e-94 2.63128e-94 2.55536e-94 2.40525e-94 2.20808e-94 2.00543e-94 1.84452e-94 1.7646e-94 1.78721e-94 1.91545e-94 2.1401e-94 2.44462e-94 2.80315e-94 3.17451e-94 3.50251e-94 3.7295e-94 3.81756e-94 3.76413e-94 3.60306e-94 3.38926e-94 3.17156e-94 2.96726e-94 2.75652e-94 2.5031e-94 2.18535e-94 1.81279e-94 1.41892e-94 1.04283e-94 7.15739e-95 4.55843e-95 2.67785e-95 1.44473e-95 7.14367e-96 3.23742e-96 1.34687e-96 5.15772e-97 1.82393e-97 5.97732e-98 1.82181e-98 5.18218e-99 1.38036e-99 3.45388e-100 8.14225e-101 1.81342e-101 3.82541e-102 7.66151e-103 1.46003e-103 2.65279e-104 4.60431e-105 7.64733e-106 1.21745e-106 1.86057e-107 2.73352e-108 3.86593e-109 5.2697e-110 6.93146e-111 8.80746e-112 1.08221e-112 1.28716e-113 1.48325e-114 1.65743e-115 1.79743e-116 1.89323e-117 1.93826e-118 1.93011e-119 1.87071e-120 1.76587e-121 1.62444e-122 1.45712e-123 1.27517e-124 1.08932e-125 9.08819e-127 7.40871e-128 5.90409e-129 4.60152e-130 3.50893e-131 2.61908e-132 1.91424e-133 1.37051e-134 9.61539e-136 6.6129e-137 4.44081e-138 0 
0 6.97103e-196 1.99045e-194 5.61266e-193 1.56466e-191 4.31185e-190 1.17449e-188 3.1618e-187 8.41142e-186 2.21108e-184 5.74237e-183 1.47325e-181 3.73346e-180 9.34418e-179 2.30946e-177 5.63591e-176 1.35783e-174 3.22919e-173 7.5797e-172 1.75573e-170 4.01281e-169 9.04814e-168 2.01245e-166 4.41446e-165 9.54877e-164 2.0364e-162 4.28108e-161 8.87037e-160 1.81114e-158 3.64337e-157 7.21964e-156 1.40898e-154 2.70762e-153 5.1224e-152 9.5383e-151 1.74778e-149 3.15083e-148 5.5871e-147 9.74244e-146 1.67018e-144 2.81426e-143 4.65971e-142 7.57932e-141 1.21076e-139 1.89897e-138 2.92335e-137 4.41587e-136 6.5431e-135 9.50696e-134 1.35407e-132 1.88987e-131 2.58375e-130 3.45886e-129 4.53218e-128 5.81025e-127 7.28464e-126 8.92798e-125 1.06912e-123 1.25032e-122 1.42728e-121 1.58952e-120 1.72602e-119 1.8264e-118 1.88214e-117 1.88772e-116 1.84143e-115 1.74582e-114 1.60748e-113 1.43632e-112 1.24439e-111 1.04442e-110 8.4841e-110 6.66376e-109 5.05544e-108 3.70033e-107 2.61004e-106 1.77185e-105 1.15609e-104 7.23951e-104 4.34411e-103 2.49367e-102 1.3669e-101 7.14084e-101 3.54779e-100 1.67251e-99 7.46286e-99 3.14336e-98 1.24612e-97 4.63465e-97 1.61157e-96 5.21938e-96 1.568e-95 4.35029e-95 1.10944e-94 2.58809e-94 5.49539e-94 1.05707e-93 1.83448e-93 2.86416e-93 4.02045e-93 5.08722e-93 5.84311e-93 6.16563e-93 6.07784e-93 5.70699e-93 5.19861e-93 4.65499e-93 4.12936e-93 3.65571e-93 3.27798e-93 3.05855e-93 3.06545e-93 3.34976e-93 3.92217e-93 4.73145e-93 5.6554e-93 6.52464e-93 7.17926e-93 7.52447e-93 7.55198e-93 7.3263e-93 6.955e-93 6.55313e-93 6.20847e-93 5.96654e-93 5.84734e-93 5.87109e-93 6.05455e-93 6.37811e-93 6.76771e-93 7.12318e-93 7.37368e-93 7.51624e-93 7.61085e-93 7.73712e-93 7.9413e-93 8.20133e-93 8.42454e-93 8.48511e-93 8.29274e-93 7.85162e-93 7.26015e-93 6.64883e-93 6.11062e-93 5.67851e-93 5.34767e-93 5.09816e-93 4.8949e-93 4.68532e-93 4.42049e-93 4.0905e-93 3.74388e-93 3.47627e-93 3.39231e-93 3.55279e-93 3.93144e-93 4.41416e-93 4.85222e-93 5.13814e-93 5.24881e-93 5.22999e-93 5.14915e-93 5.05721e-93 4.97274e-93 4.88515e-93 4.77733e-93 4.66015e-93 4.59027e-93 4.64772e-93 4.88316e-93 5.27402e-93 5.72502e-93 6.11348e-93 6.34333e-93 6.36852e-93 6.18505e-93 5.8221e-93 5.34531e-93 4.85524e-93 4.46599e-93 4.27254e-93 4.32702e-93 4.63703e-93 5.18032e-93 5.91682e-93 6.78387e-93 7.68179e-93 8.47478e-93 9.02359e-93 9.23665e-93 9.10783e-93 8.71886e-93 8.20228e-93 7.67593e-93 7.18152e-93 6.67125e-93 6.05764e-93 5.28852e-93 4.38692e-93 3.43379e-93 2.52375e-93 1.73228e-93 1.10341e-93 6.48347e-94 3.49906e-94 1.73089e-94 7.84819e-95 3.26702e-95 1.2519e-95 4.43024e-96 1.45296e-96 4.43195e-97 1.26173e-97 3.36369e-98 8.42392e-99 1.98767e-99 4.43095e-100 9.35584e-101 1.87556e-101 3.57763e-102 6.50671e-103 1.13045e-103 1.87943e-104 2.99503e-105 4.58182e-106 6.73837e-107 9.53963e-108 1.3017e-108 1.71396e-109 2.18011e-110 2.6816e-111 3.19281e-112 3.6831e-113 4.11998e-114 4.47274e-115 4.71618e-116 4.83354e-117 4.81841e-118 4.67516e-119 4.41795e-120 4.06854e-121 3.65344e-122 3.20075e-123 2.73727e-124 2.28621e-125 1.86578e-126 1.48851e-127 1.1614e-128 8.86622e-130 6.62518e-131 4.84765e-132 3.47459e-133 2.44048e-134 1.68031e-135 1.12965e-136 0 
0 1.84811e-194 5.27058e-193 1.4844e-191 4.13315e-190 1.13763e-188 3.09504e-187 8.32203e-186 2.21128e-184 5.80576e-183 1.50601e-181 3.85918e-180 9.76816e-179 2.44189e-177 6.02808e-176 1.46933e-174 3.53578e-173 8.39888e-172 1.9691e-170 4.55577e-169 1.04002e-167 2.3423e-166 5.20355e-165 1.1401e-163 2.46324e-162 5.24707e-161 1.1018e-159 2.28026e-158 4.6504e-157 9.34414e-156 1.84948e-154 3.60528e-153 6.92024e-152 1.3077e-150 2.43224e-149 4.45169e-148 8.01615e-147 1.41981e-145 2.47296e-144 4.23467e-143 7.12735e-142 1.17877e-140 1.91519e-139 3.05597e-138 4.78762e-137 7.36199e-136 1.11082e-134 1.64409e-133 2.38615e-132 3.3948e-131 4.73283e-130 6.46336e-129 8.64292e-128 1.13124e-126 1.44865e-125 1.81427e-124 2.22111e-123 2.65687e-122 3.10378e-121 3.53922e-120 3.93725e-119 4.27075e-118 4.51427e-117 4.64706e-116 4.65583e-115 4.53683e-114 4.2967e-113 3.95205e-112 3.52752e-111 3.05293e-110 2.55967e-109 2.07712e-108 1.62977e-107 1.23514e-106 9.03138e-106 6.36382e-105 4.31577e-104 2.8131e-103 1.75982e-102 1.05494e-101 6.04979e-101 3.31295e-100 1.72905e-99 8.58229e-99 4.04209e-98 1.80194e-97 7.58285e-97 3.00338e-96 1.11606e-95 3.87749e-95 1.25476e-94 3.76655e-94 1.04421e-93 2.66111e-93 6.20371e-93 1.31647e-92 2.53098e-92 4.39041e-92 6.85235e-92 9.61637e-92 1.21663e-91 1.39735e-91 1.47453e-91 1.45366e-91 1.36509e-91 1.24359e-91 1.11362e-91 9.8796e-92 8.74739e-92 7.84479e-92 7.32079e-92 7.33789e-92 8.01802e-92 9.38659e-92 1.1321e-91 1.35292e-91 1.56066e-91 1.71713e-91 1.79966e-91 1.80628e-91 1.75239e-91 1.6637e-91 1.5677e-91 1.48537e-91 1.4276e-91 1.39919e-91 1.40492e-91 1.44879e-91 1.52606e-91 1.61908e-91 1.70396e-91 1.7638e-91 1.7979e-91 1.82055e-91 1.85075e-91 1.89954e-91 1.96163e-91 2.01492e-91 2.02937e-91 1.98345e-91 1.87812e-91 1.73684e-91 1.59072e-91 1.46198e-91 1.35854e-91 1.27931e-91 1.21953e-91 1.17083e-91 1.12065e-91 1.05729e-91 9.78365e-92 8.95473e-92 8.31469e-92 8.11373e-92 8.49711e-92 9.40213e-92 1.05562e-91 1.16039e-91 1.22884e-91 1.25541e-91 1.251e-91 1.23173e-91 1.20979e-91 1.18961e-91 1.16866e-91 1.14289e-91 1.11488e-91 1.09819e-91 1.11194e-91 1.16822e-91 1.26165e-91 1.36946e-91 1.46234e-91 1.51733e-91 1.52339e-91 1.47957e-91 1.39284e-91 1.27889e-91 1.16176e-91 1.06871e-91 1.02243e-91 1.0354e-91 1.10947e-91 1.23932e-91 1.41536e-91 1.62259e-91 1.83716e-91 2.02663e-91 2.15777e-91 2.20872e-91 2.17802e-91 2.08519e-91 1.96183e-91 1.83606e-91 1.71782e-91 1.59571e-91 1.44887e-91 1.26488e-91 1.04923e-91 8.21281e-92 6.03642e-92 4.14364e-92 2.63975e-92 1.55142e-92 8.37557e-93 4.1449e-93 1.88034e-93 7.83199e-94 3.00311e-94 1.0635e-94 3.49052e-95 1.06555e-95 3.03602e-96 8.10074e-97 2.03051e-97 4.79538e-98 1.06998e-98 2.26134e-99 4.53758e-100 8.66374e-101 1.57722e-101 2.74288e-102 4.56471e-103 7.28152e-104 1.11505e-104 1.64155e-105 2.32634e-106 3.17759e-107 4.18829e-108 5.33293e-109 6.56653e-110 7.82655e-111 9.03793e-112 1.01207e-112 1.09989e-113 1.161e-114 1.19116e-115 1.18871e-116 1.15462e-117 1.09227e-118 1.00698e-119 9.05229e-121 7.93931e-122 6.79709e-123 5.68329e-124 4.64326e-125 3.70846e-126 2.89671e-127 2.21382e-128 1.6561e-129 1.21312e-130 8.70487e-132 6.12096e-133 4.21912e-134 2.83963e-135 0 