# vtk DataFile Version 3.0
Gray-Scott Simulation Output
ASCII
DATASET STRUCTURED_POINTS
DIMENSIONS 256 256 1
SPACING 1.0 1.0 1.0
ORIGIN 0 0 0
POINT_DATA 65536
SCALARS u double
LOOKUP_TABLE default
0 0 0 0 0 0 0 0 0 0 0 0 0 0 0 0 0 0 0 0 0 0 0 0 0 0 0 0 0 0 0 0 0 0 0 0 0 0 0 0 0 0 0 0 0 0 0 0 0 0 0 0 0 0 0 0 0 0 0 0 0 0 0 0 0 0 0 0 0 0 0 0 0 0 0 0 0 0 0 0 0 0 0 0 0 0 0 0 0 0 0 0 0 0 0 0 0 0 0 0 0 0 0 0 0 0 0 0 0 0 0 0 0 0 0 0 0 0 0 0 0 0 0 0 0 0 0 0 0 0 0 0 0 0 0 0 0 0 0 0 0 0 0 0 0 0 0 0 0 0 0 0 0 0 0 0 0 0 0 0 0 0 0 0 0 0 0 0 0 0 0 0 0 0 0 0 0 0 0 0 0 0 0 0 0 0 0 0 0 0 0 0 0 0 0 0 0 0 0 0 0 0 0 0 0 0 0 0 0 0 0 0 0 0 0 0 0 0 0 0 0 0 0 0 0 0 0 0 0 0 0 0 0 0 0 0 0 0 0 0 0 0 0 0 0 0 0 0 0 0 0 0 0 0 0 0 
0 6.43832e-102 3.79462e-101 2.15308e-100 1.20885e-99 6.72083e-99 3.69981e-98 2.01654e-97 1.08809e-96 5.81187e-96 3.07269e-95 1.6078e-94 8.32562e-94 4.26607e-93 2.16284e-92 1.08483e-91 5.38263e-91 2.64167e-90 1.28223e-89 6.1548e-89 2.92126e-88 1.37084e-87 6.35941e-87 2.91612e-86 1.32161e-85 5.91914e-85 2.61949e-84 1.14531e-83 4.94674e-83 2.11034e-82 8.89127e-82 3.69908e-81 1.51943e-80 6.16121e-80 2.46595e-79 9.74034e-79 3.79637e-78 1.45983e-77 5.53739e-77 2.07162e-76 7.6427e-76 2.77998e-75 9.96832e-75 3.523e-74 1.22698e-73 4.21033e-73 1.42322e-72 4.73829e-72 1.5534e-71 5.01385e-71 1.59295e-70 4.98061e-70 1.53224e-69 4.63707e-69 1.38019e-68 4.03939e-68 1.1622e-67 3.28648e-67 9.13212e-67 2.49286e-66 6.68352e-66 1.7595e-65 4.54721e-65 1.15335e-64 2.87031e-64 7.00707e-64 1.67753e-63 3.93749e-63 9.0587e-63 2.04219e-62 4.51016e-62 9.75522e-62 2.06593e-61 4.28261e-61 8.68765e-61 1.72417e-60 3.34677e-60 6.35228e-60 1.17864e-59 2.13733e-59 3.78705e-59 6.55491e-59 1.1081e-58 1.82913e-58 2.94774e-58 4.63703e-58 7.11925e-58 1.06666e-57 1.55945e-57 2.22462e-57 3.09651e-57 4.2057e-57 5.57433e-57 7.21109e-57 9.10669e-57 1.12307e-56 1.35304e-56 1.59334e-56 1.8352e-56 2.06919e-56 2.28618e-56 2.47837e-56 2.64028e-56 2.76936e-56 2.86633e-56 2.93503e-56 2.98188e-56 3.01501e-56 3.04314e-56 3.07451e-56 3.11582e-56 3.1715e-56 3.24327e-56 3.33016e-56 3.42886e-56 3.53439e-56 3.64095e-56 3.74288e-56 3.83543e-56 3.91544e-56 3.98161e-56 4.0345e-56 4.0763e-56 4.11024e-56 4.14005e-56 4.16929e-56 4.20086e-56 4.23662e-56 4.27717e-56 4.3219e-56 4.36903e-56 4.41591e-56 4.45925e-56 4.49541e-56 4.52073e-56 4.53178e-56 4.52563e-56 4.5001e-56 4.45396e-56 4.38704e-56 4.30029e-56 4.19576e-56 4.07645e-56 3.94616e-56 3.80919e-56 3.6702e-56 3.53386e-56 3.40477e-56 3.28715e-56 3.18471e-56 3.10046e-56 3.03646e-56 2.99365e-56 2.97176e-56 2.96927e-56 2.98351e-56 3.01096e-56 3.0476e-56 3.08941e-56 3.13277e-56 3.17492e-56 3.21413e-56 3.24979e-56 3.28226e-56 3.31258e-56 3.34208e-56 3.37196e-56 3.40293e-56 3.435e-56 3.4674e-56 3.4988e-56 3.52755e-56 3.55219e-56 3.5719e-56 3.58685e-56 3.59848e-56 3.60948e-56 3.62348e-56 3.64462e-56 3.67681e-56 3.72306e-56 3.7848e-56 3.86141e-56 3.94996e-56 4.04536e-56 4.14064e-56 4.22763e-56 4.29764e-56 4.34224e-56 4.354e-56 4.32703e-56 4.2574e-56 4.1433e-56 3.98514e-56 3.78541e-56 3.54851e-56 3.28047e-56 2.98863e-56 2.68125e-56 2.36706e-56 2.05479e-56 1.75263e-56 1.46782e-56 1.20621e-56 9.72016e-57 7.6767e-57 5.93892e-57 4.49861e-57 3.33519e-57 2.41932e-57 1.71665e-57 1.19123e-57 8.08279e-58 5.36208e-58 3.4776e-58 2.20489e-58 1.36664e-58 8.28132e-59 4.90624e-59 2.8421e-59 1.60998e-59 8.9197e-60 4.83381e-60 2.56278e-60 1.32951e-60 6.75012e-61 3.35474e-61 1.63238e-61 7.77844e-62 3.63051e-62 1.66013e-62 7.43907e-63 3.26733e-63 1.40692e-63 5.9408e-64 2.46051e-64 9.9979e-65 3.98656e-65 1.56025e-65 5.99512e-66 2.26207e-66 8.3834e-67 3.05236e-67 1.09207e-67 3.84022e-68 1.32755e-68 4.5126e-69 1.5086e-69 4.96116e-70 1.60525e-70 5.11137e-71 1.6019e-71 4.93984e-72 1.49076e-72 4.10898e-73 0 
0 3.79547e-101 2.23677e-100 1.26903e-99 7.12435e-99 3.96054e-98 2.18008e-97 1.18813e-96 6.4104e-96 3.42374e-95 1.80996e-94 9.47e-94 4.90345e-93 2.51237e-92 1.27365e-91 6.3879e-91 3.16931e-90 1.55533e-89 7.54896e-89 3.62336e-88 1.71967e-87 8.06943e-87 3.74328e-86 1.71642e-85 7.7787e-85 3.48375e-84 1.54167e-83 6.7404e-83 2.91121e-82 1.24194e-81 5.23243e-81 2.17685e-80 8.94156e-80 3.62574e-79 1.45116e-78 5.73201e-78 2.23412e-77 8.59101e-77 3.25879e-76 1.21919e-75 4.49799e-75 1.63616e-74 5.86708e-74 2.07362e-73 7.22225e-73 2.47841e-72 8.37822e-72 2.7895e-71 9.14566e-71 2.95211e-70 9.37978e-70 2.93297e-69 9.02375e-69 2.73111e-68 8.12967e-68 2.37953e-67 6.84696e-67 1.9364e-66 5.38122e-66 1.46911e-65 3.93924e-65 1.03717e-64 2.68075e-64 6.80027e-64 1.69258e-63 4.1325e-63 9.89478e-63 2.32281e-62 5.34466e-62 1.20506e-61 2.66175e-61 5.75803e-61 1.21959e-60 2.52854e-60 5.13008e-60 1.01827e-59 1.97683e-59 3.75261e-59 6.96375e-59 1.26297e-58 2.23808e-58 3.87433e-58 6.55026e-58 1.08137e-57 1.74288e-57 2.74197e-57 4.21016e-57 6.30851e-57 9.22379e-57 1.31591e-56 1.83177e-56 2.48807e-56 3.2979e-56 4.26642e-56 5.38813e-56 6.645e-56 8.0059e-56 9.42787e-56 1.08591e-55 1.22437e-55 1.35277e-55 1.46649e-55 1.56229e-55 1.63866e-55 1.69602e-55 1.73664e-55 1.76432e-55 1.78386e-55 1.80042e-55 1.81886e-55 1.84315e-55 1.87589e-55 1.91813e-55 1.96928e-55 2.02741e-55 2.08956e-55 2.15234e-55 2.21238e-55 2.26691e-55 2.31405e-55 2.35303e-55 2.3842e-55 2.40882e-55 2.42881e-55 2.44636e-55 2.46358e-55 2.48217e-55 2.50322e-55 2.5271e-55 2.55343e-55 2.58119e-55 2.6088e-55 2.63432e-55 2.65562e-55 2.67055e-55 2.67707e-55 2.67346e-55 2.65845e-55 2.63129e-55 2.59189e-55 2.54081e-55 2.47925e-55 2.40898e-55 2.33222e-55 2.25154e-55 2.16965e-55 2.08932e-55 2.01325e-55 1.94394e-55 1.88358e-55 1.83393e-55 1.79622e-55 1.771e-55 1.75812e-55 1.75668e-55 1.7651e-55 1.78131e-55 1.80294e-55 1.82761e-55 1.85319e-55 1.87804e-55 1.90116e-55 1.92217e-55 1.94129e-55 1.95914e-55 1.9765e-55 1.99409e-55 2.01232e-55 2.0312e-55 2.05029e-55 2.06878e-55 2.08573e-55 2.10025e-55 2.11186e-55 2.12067e-55 2.12752e-55 2.13398e-55 2.14221e-55 2.15464e-55 2.17357e-55 2.20079e-55 2.23713e-55 2.28222e-55 2.33436e-55 2.39053e-55 2.44664e-55 2.49787e-55 2.53909e-55 2.56535e-55 2.57225e-55 2.55634e-55 2.51527e-55 2.44798e-55 2.35469e-55 2.23687e-55 2.0971e-55 1.93892e-55 1.76666e-55 1.58518e-55 1.39963e-55 1.21516e-55 1.03662e-55 8.68286e-56 7.13631e-56 5.75149e-56 4.54292e-56 3.51493e-56 2.66276e-56 1.9743e-56 1.43225e-56 1.01633e-56 7.05293e-57 4.78578e-57 3.17494e-57 2.05914e-57 1.30555e-57 8.09199e-58 4.90331e-58 2.90485e-58 1.68265e-58 9.53128e-59 5.28021e-59 2.86127e-59 1.51686e-59 7.86843e-60 3.99455e-60 1.98505e-60 9.65806e-61 4.60167e-61 2.14755e-61 9.81905e-62 4.39942e-62 1.93206e-62 8.31851e-63 3.51214e-63 1.45446e-63 5.9093e-64 2.35601e-64 9.21986e-65 3.54225e-65 1.33641e-65 4.95232e-66 1.80293e-66 6.44985e-67 2.26785e-67 7.83916e-68 2.66444e-68 8.90668e-69 2.92879e-69 9.47575e-70 3.017e-70 9.45461e-71 2.91536e-71 8.79755e-72 2.42474e-72 0 
0 2.15408e-100 1.26934e-99 7.20085e-99 4.04217e-98 2.2469e-97 1.23669e-96 6.73928e-96 3.63578e-95 1.94168e-94 1.02639e-93 5.3698e-93 2.78021e-92 1.42438e-91 7.22045e-91 3.62113e-90 1.79648e-89 8.81568e-89 4.27854e-88 2.05351e-87 9.74563e-87 4.57285e-86 2.12118e-85 9.72598e-85 4.40758e-84 1.97391e-83 8.73493e-83 3.81895e-82 1.64939e-81 7.03625e-81 2.96443e-80 1.23328e-79 5.06578e-79 2.05414e-78 8.22151e-78 3.24749e-77 1.26576e-76 4.86742e-76 1.84638e-75 6.90793e-75 2.54865e-74 9.27117e-74 3.32467e-73 1.1751e-72 4.09301e-72 1.40465e-71 4.74869e-71 1.58117e-70 5.18439e-70 1.67359e-69 5.31795e-69 1.66302e-68 5.11702e-68 1.54886e-67 4.61094e-67 1.34975e-66 3.88427e-66 1.09864e-65 3.05347e-65 8.33724e-65 2.23582e-64 5.88748e-64 1.52194e-63 3.86125e-63 9.612e-63 2.34716e-62 5.62082e-62 1.31969e-61 3.03701e-61 6.84865e-61 1.51297e-60 3.27345e-60 6.9345e-60 1.43794e-59 2.91785e-59 5.79255e-59 1.12472e-58 2.13538e-58 3.96325e-58 7.18893e-58 1.27412e-57 2.20593e-57 3.73002e-57 6.15863e-57 9.92724e-57 1.56197e-56 2.39859e-56 3.5944e-56 5.25592e-56 7.49894e-56 1.04394e-55 1.41806e-55 1.87972e-55 2.43187e-55 3.07136e-55 3.78791e-55 4.56378e-55 5.37445e-55 6.19039e-55 6.97973e-55 7.71168e-55 8.35995e-55 8.90601e-55 9.34126e-55 9.66812e-55 9.89949e-55 1.0057e-54 1.0168e-54 1.02618e-54 1.03661e-54 1.05035e-54 1.0689e-54 1.09283e-54 1.12184e-54 1.1548e-54 1.19005e-54 1.22567e-54 1.25974e-54 1.29068e-54 1.31742e-54 1.33954e-54 1.35722e-54 1.37119e-54 1.38253e-54 1.39249e-54 1.40225e-54 1.41279e-54 1.42472e-54 1.43826e-54 1.45319e-54 1.46893e-54 1.48459e-54 1.49907e-54 1.51115e-54 1.51963e-54 1.52333e-54 1.5213e-54 1.5128e-54 1.4974e-54 1.47506e-54 1.4461e-54 1.41118e-54 1.37132e-54 1.32778e-54 1.282e-54 1.23554e-54 1.18996e-54 1.14679e-54 1.10745e-54 1.0732e-54 1.04502e-54 1.02362e-54 1.00932e-54 1.00202e-54 1.00122e-54 1.00602e-54 1.01524e-54 1.02754e-54 1.04156e-54 1.05609e-54 1.0702e-54 1.08332e-54 1.09525e-54 1.10609e-54 1.11621e-54 1.12605e-54 1.13602e-54 1.14635e-54 1.15706e-54 1.16789e-54 1.17838e-54 1.188e-54 1.19624e-54 1.20283e-54 1.20783e-54 1.21171e-54 1.21537e-54 1.22002e-54 1.22706e-54 1.23778e-54 1.2532e-54 1.2738e-54 1.29936e-54 1.32893e-54 1.36078e-54 1.3926e-54 1.42165e-54 1.44503e-54 1.45992e-54 1.46383e-54 1.45478e-54 1.43145e-54 1.39323e-54 1.34024e-54 1.2733e-54 1.19387e-54 1.10396e-54 1.00602e-54 9.02811e-55 7.97257e-55 6.92288e-55 5.90665e-55 4.94826e-55 4.0675e-55 3.27865e-55 2.59004e-55 2.0042e-55 1.51846e-55 1.12597e-55 8.16897e-56 5.79713e-56 4.02319e-56 2.73005e-56 1.81118e-56 1.17468e-56 7.4477e-57 4.61611e-57 2.79703e-57 1.65696e-57 9.59753e-58 5.43611e-58 3.01132e-58 1.63165e-58 8.64916e-59 4.48614e-59 2.27723e-59 1.13152e-59 5.50466e-60 2.62243e-60 1.22371e-60 5.59435e-61 2.50622e-61 1.1005e-61 4.73759e-62 1.99999e-62 8.28133e-63 3.36417e-63 1.34111e-63 5.24754e-64 2.01585e-64 7.60442e-65 2.81762e-65 1.02566e-65 3.66879e-66 1.28986e-66 4.4581e-67 1.5151e-67 5.06417e-68 1.6651e-68 5.38675e-69 1.71495e-69 5.37383e-70 1.65691e-70 4.99963e-71 1.37789e-71 0 
0 1.20971e-99 7.12781e-99 4.04316e-98 2.2694e-97 1.26136e-96 6.94194e-96 3.78263e-95 2.04053e-94 1.08965e-93 5.75952e-93 3.01301e-92 1.55987e-91 7.99114e-91 4.05058e-90 2.03128e-89 1.00768e-88 4.9446e-88 2.39965e-87 1.15167e-86 5.46539e-86 2.56436e-85 1.18947e-84 5.45374e-84 2.47143e-83 1.10678e-82 4.89762e-82 2.14121e-81 9.24769e-81 3.945e-80 1.66205e-79 6.91455e-79 2.84019e-78 1.15169e-77 4.60958e-77 1.82081e-76 7.09703e-76 2.7292e-75 1.03531e-74 3.87357e-74 1.42919e-73 5.19917e-73 1.86453e-72 6.59054e-72 2.29569e-71 7.87891e-71 2.6638e-70 8.87031e-70 2.90866e-69 9.39034e-69 2.98412e-68 9.33276e-68 2.87193e-67 8.6939e-67 2.58845e-66 7.578e-66 2.18103e-65 6.16969e-65 1.71498e-64 4.68322e-64 1.25608e-63 3.30807e-63 8.55273e-63 2.17021e-62 5.40324e-62 1.31963e-61 3.16066e-61 7.42202e-61 1.70831e-60 3.85299e-60 8.51327e-60 1.84224e-59 3.90327e-59 8.09519e-59 1.64295e-58 3.26215e-58 6.33506e-58 1.20296e-57 2.23305e-57 4.05116e-57 7.18111e-57 1.24347e-56 2.1029e-56 3.47256e-56 5.59822e-56 8.80942e-56 1.35294e-55 2.02766e-55 2.96523e-55 4.23104e-55 5.89057e-55 8.00211e-55 1.06079e-54 1.37244e-54 1.73341e-54 2.13788e-54 2.57583e-54 3.03342e-54 3.49398e-54 3.93951e-54 4.35261e-54 4.71848e-54 5.02663e-54 5.27221e-54 5.45659e-54 5.58703e-54 5.67573e-54 5.73809e-54 5.79067e-54 5.8491e-54 5.92608e-54 6.03004e-54 6.16429e-54 6.32705e-54 6.5121e-54 6.71007e-54 6.91008e-54 7.10143e-54 7.27523e-54 7.42547e-54 7.54971e-54 7.64902e-54 7.72746e-54 7.79112e-54 7.847e-54 7.90179e-54 7.96094e-54 8.02793e-54 8.10392e-54 8.18773e-54 8.27609e-54 8.364e-54 8.44531e-54 8.5132e-54 8.56081e-54 8.58168e-54 8.57033e-54 8.52265e-54 8.43629e-54 8.31091e-54 8.1483e-54 7.95227e-54 7.72845e-54 7.48393e-54 7.22682e-54 6.96582e-54 6.70976e-54 6.46725e-54 6.24626e-54 6.0538e-54 5.89552e-54 5.77531e-54 5.69499e-54 5.65406e-54 5.64964e-54 5.67674e-54 5.72867e-54 5.79789e-54 5.87676e-54 5.95849e-54 6.03784e-54 6.11157e-54 6.17853e-54 6.2394e-54 6.29618e-54 6.3514e-54 6.40732e-54 6.46532e-54 6.52542e-54 6.58622e-54 6.64516e-54 6.69918e-54 6.74549e-54 6.78252e-54 6.81057e-54 6.83235e-54 6.85285e-54 6.87894e-54 6.91835e-54 6.97847e-54 7.06496e-54 7.18053e-54 7.324e-54 7.48994e-54 7.66876e-54 7.84742e-54 8.01054e-54 8.1418e-54 8.22537e-54 8.24726e-54 8.19635e-54 8.06517e-54 7.85027e-54 7.55228e-54 7.17579e-54 6.72895e-54 6.22302e-54 5.67175e-54 5.09065e-54 4.49619e-54 3.90484e-54 3.33217e-54 2.79195e-54 2.29535e-54 1.85046e-54 1.46201e-54 1.13146e-54 8.57329e-55 6.35787e-55 4.61306e-55 3.27388e-55 2.27218e-55 1.54191e-55 1.02296e-55 6.63465e-56 4.20647e-56 2.60713e-56 1.57968e-56 9.35754e-57 5.41979e-57 3.06959e-57 1.70025e-57 9.21179e-58 4.88256e-58 2.53221e-58 1.28524e-58 6.3854e-59 3.106e-59 1.47951e-59 6.90294e-60 3.15535e-60 1.41338e-60 6.20536e-61 2.671e-61 1.12741e-61 4.66763e-62 1.8959e-62 7.55683e-63 2.95647e-63 1.13558e-63 4.2832e-64 1.58682e-64 5.77557e-65 2.06568e-65 7.26155e-66 2.50951e-66 8.5277e-67 2.85005e-67 9.37002e-68 3.03098e-68 9.64868e-69 3.02316e-69 9.32053e-70 2.81219e-70 7.74988e-71 0 
0 6.72727e-99 3.96345e-98 2.24801e-97 1.26168e-96 7.01195e-96 3.8587e-95 2.10242e-94 1.13405e-93 6.05539e-93 3.20044e-92 1.67414e-91 8.66664e-91 4.43958e-90 2.25021e-89 1.12836e-88 5.5973e-88 2.7464e-87 1.33278e-86 6.39615e-86 3.03524e-85 1.42408e-84 6.60534e-84 3.02846e-83 1.37235e-82 6.14566e-82 2.71946e-81 1.18892e-80 5.13476e-80 2.19044e-79 9.2284e-79 3.83926e-78 1.57701e-77 6.3948e-77 2.55953e-76 1.01105e-75 3.94091e-75 1.51554e-74 5.74933e-74 2.15118e-73 7.93736e-73 2.88763e-72 1.03562e-71 3.66083e-71 1.27526e-70 4.37708e-70 1.47997e-69 4.92863e-69 1.61629e-68 5.21852e-68 1.65854e-67 5.18757e-67 1.59652e-66 4.83353e-66 1.43927e-65 4.21416e-65 1.21304e-64 3.43189e-64 9.5409e-64 2.60578e-63 6.98998e-63 1.84119e-62 4.76099e-62 1.20827e-61 3.00876e-61 7.34949e-61 1.76059e-60 4.13502e-60 9.51918e-60 2.14737e-59 4.74551e-59 1.0271e-58 2.17656e-58 4.5149e-58 9.1648e-58 1.82004e-57 3.53512e-57 6.71399e-57 1.24652e-56 2.2618e-56 4.00993e-56 6.94463e-56 1.17462e-55 1.93995e-55 3.12788e-55 4.9227e-55 7.56113e-55 1.13332e-54 1.65752e-54 2.3653e-54 3.2933e-54 4.47413e-54 5.93141e-54 7.67442e-54 9.69325e-54 1.19554e-53 1.44048e-53 1.6964e-53 1.95396e-53 2.20312e-53 2.43413e-53 2.6387e-53 2.81099e-53 2.94826e-53 3.05129e-53 3.12414e-53 3.17362e-53 3.20832e-53 3.23751e-53 3.26991e-53 3.31261e-53 3.37033e-53 3.44493e-53 3.53542e-53 3.63833e-53 3.74846e-53 3.85974e-53 3.96622e-53 4.06293e-53 4.14654e-53 4.21567e-53 4.27093e-53 4.31456e-53 4.34997e-53 4.38104e-53 4.41151e-53 4.44439e-53 4.48163e-53 4.52389e-53 4.5705e-53 4.61964e-53 4.66854e-53 4.71378e-53 4.75156e-53 4.77806e-53 4.78971e-53 4.78343e-53 4.75695e-53 4.70895e-53 4.63924e-53 4.54881e-53 4.43977e-53 4.31526e-53 4.17922e-53 4.03616e-53 3.89093e-53 3.74843e-53 3.61346e-53 3.49046e-53 3.38335e-53 3.29525e-53 3.22836e-53 3.18368e-53 3.16094e-53 3.15854e-53 3.17368e-53 3.20266e-53 3.24126e-53 3.28522e-53 3.33076e-53 3.37495e-53 3.41599e-53 3.45324e-53 3.4871e-53 3.51866e-53 3.54934e-53 3.58042e-53 3.61267e-53 3.64609e-53 3.67991e-53 3.71271e-53 3.74277e-53 3.76855e-53 3.78916e-53 3.80476e-53 3.81686e-53 3.82824e-53 3.84271e-53 3.86459e-53 3.89798e-53 3.94604e-53 4.01027e-53 4.09005e-53 4.18233e-53 4.28178e-53 4.38115e-53 4.47189e-53 4.54491e-53 4.59139e-53 4.60355e-53 4.57518e-53 4.50211e-53 4.3824e-53 4.21639e-53 4.00661e-53 3.75757e-53 3.47552e-53 3.16811e-53 2.84397e-53 2.51228e-53 2.18222e-53 1.86249e-53 1.56079e-53 1.28338e-53 1.03478e-53 8.17672e-54 6.3288e-54 4.796e-54 3.55702e-54 2.58106e-54 1.8319e-54 1.27146e-54 8.62846e-55 5.72457e-55 3.7128e-55 2.35395e-55 1.45891e-55 8.83927e-56 5.23584e-56 3.03234e-56 1.71728e-56 9.5112e-57 5.15257e-57 2.73074e-57 1.41606e-57 7.18644e-58 3.56994e-58 1.73627e-58 8.26938e-59 3.85769e-59 1.7631e-59 7.89632e-60 3.46632e-60 1.49181e-60 6.29588e-61 2.60618e-61 1.05842e-61 4.21813e-62 1.65003e-62 6.33683e-63 2.38981e-63 8.85245e-64 3.2216e-64 1.15208e-64 4.04943e-65 1.39926e-65 4.75435e-66 1.58878e-66 5.22279e-67 1.68927e-67 5.377e-68 1.68458e-68 5.19314e-69 1.56674e-69 4.31735e-70 0 
0 3.7043e-98 2.18224e-97 1.23762e-96 6.94542e-96 3.85968e-95 2.12382e-94 1.15707e-93 6.24078e-93 3.33209e-92 1.76097e-91 9.21098e-91 4.76799e-90 2.4423e-89 1.23781e-88 6.20664e-88 3.07867e-87 1.51052e-86 7.32998e-86 3.51758e-85 1.66918e-84 7.83122e-84 3.63225e-83 1.66529e-82 7.5461e-82 3.37924e-81 1.4953e-80 6.5372e-80 2.8233e-79 1.20439e-78 5.07417e-78 2.11101e-77 8.67126e-77 3.51626e-76 1.40742e-75 5.55965e-75 2.16713e-74 8.33436e-74 3.16184e-73 1.1831e-72 4.36558e-72 1.5883e-71 5.69665e-71 2.01385e-70 7.01584e-70 2.40823e-69 8.14338e-69 2.71216e-68 8.89508e-68 2.87225e-67 9.12948e-67 2.85584e-66 8.79013e-66 2.66158e-65 7.92632e-65 2.32113e-64 6.68225e-64 1.8908e-63 5.25732e-63 1.43608e-62 3.85289e-62 1.01503e-61 2.62513e-61 6.66335e-61 1.65956e-60 4.05451e-60 9.71447e-60 2.28201e-59 5.25438e-59 1.18552e-58 2.62041e-58 5.67257e-58 1.20233e-57 2.4945e-57 5.06455e-57 1.00596e-56 1.95427e-56 3.71229e-56 6.89349e-56 1.25103e-55 2.21833e-55 3.84248e-55 6.50022e-55 1.07371e-54 1.73145e-54 2.72535e-54 4.18659e-54 6.27588e-54 9.17969e-54 1.31008e-53 1.82423e-53 2.4785e-53 3.28598e-53 4.25181e-53 5.37051e-53 6.62404e-53 7.98131e-53 9.39939e-53 1.08265e-52 1.2207e-52 1.34868e-52 1.46201e-52 1.55744e-52 1.63346e-52 1.69049e-52 1.73079e-52 1.75812e-52 1.77724e-52 1.79328e-52 1.81107e-52 1.83453e-52 1.86627e-52 1.90733e-52 1.95716e-52 2.01387e-52 2.07456e-52 2.13589e-52 2.19459e-52 2.2479e-52 2.29399e-52 2.33209e-52 2.36255e-52 2.38659e-52 2.4061e-52 2.42322e-52 2.43999e-52 2.4581e-52 2.47862e-52 2.50189e-52 2.52757e-52 2.55464e-52 2.58159e-52 2.60652e-52 2.62735e-52 2.64197e-52 2.64841e-52 2.64498e-52 2.63041e-52 2.60398e-52 2.56558e-52 2.51576e-52 2.45568e-52 2.38707e-52 2.31209e-52 2.23324e-52 2.15317e-52 2.07462e-52 2.0002e-52 1.93239e-52 1.87333e-52 1.82476e-52 1.78788e-52 1.76326e-52 1.75075e-52 1.74946e-52 1.75785e-52 1.77387e-52 1.79519e-52 1.81946e-52 1.84459e-52 1.86898e-52 1.89161e-52 1.91214e-52 1.93078e-52 1.94816e-52 1.96505e-52 1.98216e-52 1.99992e-52 2.01833e-52 2.03697e-52 2.05505e-52 2.07162e-52 2.08584e-52 2.0972e-52 2.1058e-52 2.11246e-52 2.11871e-52 2.12666e-52 2.13869e-52 2.15706e-52 2.18351e-52 2.21888e-52 2.26282e-52 2.31366e-52 2.36845e-52 2.42321e-52 2.47322e-52 2.51346e-52 2.53908e-52 2.54576e-52 2.53011e-52 2.48979e-52 2.42374e-52 2.33212e-52 2.21632e-52 2.07882e-52 1.92305e-52 1.75323e-52 1.5741e-52 1.39075e-52 1.20824e-52 1.03139e-52 8.64466e-53 7.1093e-53 5.73306e-53 4.53082e-53 3.50731e-53 2.65816e-53 1.97165e-53 1.4308e-53 1.01557e-53 7.04909e-54 4.78384e-54 3.1739e-54 2.0585e-54 1.30508e-54 8.0883e-55 4.90031e-55 2.90247e-55 1.68084e-55 9.51817e-56 5.27114e-56 2.85527e-56 1.51305e-56 7.84514e-57 3.98084e-57 1.97726e-57 9.61514e-58 4.57876e-58 2.13568e-58 9.75933e-59 4.37018e-59 1.91811e-59 8.25369e-60 3.48276e-60 1.44146e-60 5.85312e-61 2.33228e-61 9.1219e-62 3.50268e-62 1.32077e-62 4.89174e-63 1.77995e-63 6.36443e-64 2.23672e-64 7.72787e-65 2.62541e-65 8.77231e-66 2.88338e-66 9.32502e-67 2.96785e-67 9.29712e-68 2.86579e-68 8.64513e-69 2.38209e-69 0 
0 2.0195e-97 1.18961e-96 6.74605e-96 3.7855e-95 2.10349e-94 1.15737e-93 6.30491e-93 3.40037e-92 1.8154e-91 9.59353e-91 5.01768e-90 2.5972e-89 1.33028e-88 6.74177e-88 3.38029e-87 1.67664e-86 8.22589e-86 3.99154e-85 1.91543e-84 9.08885e-84 4.26405e-83 1.97769e-82 9.06698e-82 4.10853e-81 1.83983e-80 8.14106e-80 3.55913e-79 1.53712e-78 6.55723e-78 2.76262e-77 1.14935e-76 4.7212e-76 1.91452e-75 7.6633e-75 3.02728e-74 1.18007e-73 4.53851e-73 1.72188e-72 6.44326e-72 2.37767e-71 8.6511e-71 3.10305e-70 1.09706e-69 3.82223e-69 1.31212e-68 4.4373e-68 1.47799e-67 4.84788e-67 1.56557e-66 4.97674e-66 1.55699e-65 4.79294e-65 1.45145e-64 4.3231e-64 1.26615e-63 3.64563e-63 1.03172e-62 2.86913e-62 7.83858e-62 2.10338e-61 5.54225e-61 1.43362e-60 3.63961e-60 9.0664e-60 2.21546e-59 5.30919e-59 1.24742e-58 2.87277e-58 6.48301e-58 1.43325e-57 3.10328e-57 6.5789e-57 1.36521e-56 2.77234e-56 5.50772e-56 1.07019e-55 2.03331e-55 3.77646e-55 6.85482e-55 1.21572e-54 2.10617e-54 3.56355e-54 5.88725e-54 9.49513e-54 1.49477e-53 2.29652e-53 3.44302e-53 5.03664e-53 7.18876e-53 1.00109e-52 1.36024e-52 1.80352e-52 2.33374e-52 2.94789e-52 3.63607e-52 4.38119e-52 5.15966e-52 5.94308e-52 6.70081e-52 7.40326e-52 8.02518e-52 8.54876e-52 8.96577e-52 9.27848e-52 9.49926e-52 9.64877e-52 9.75312e-52 9.84041e-52 9.93708e-52 1.00647e-51 1.02376e-51 1.04614e-51 1.07333e-51 1.10427e-51 1.1374e-51 1.17089e-51 1.20294e-51 1.23205e-51 1.25721e-51 1.27802e-51 1.29465e-51 1.30777e-51 1.31842e-51 1.32775e-51 1.33691e-51 1.34678e-51 1.35798e-51 1.37068e-51 1.38469e-51 1.39946e-51 1.41417e-51 1.42779e-51 1.43916e-51 1.44715e-51 1.45068e-51 1.44882e-51 1.44088e-51 1.42646e-51 1.40552e-51 1.37833e-51 1.34554e-51 1.30808e-51 1.26715e-51 1.22409e-51 1.18038e-51 1.13748e-51 1.09684e-51 1.0598e-51 1.02754e-51 1.00102e-51 9.80884e-52 9.67447e-52 9.60625e-52 9.59937e-52 9.64541e-52 9.73314e-52 9.8498e-52 9.98257e-52 1.012e-51 1.02532e-51 1.03768e-51 1.04889e-51 1.05906e-51 1.06854e-51 1.07775e-51 1.08708e-51 1.09676e-51 1.10681e-51 1.11698e-51 1.12686e-51 1.13591e-51 1.14367e-51 1.14988e-51 1.15457e-51 1.1582e-51 1.16161e-51 1.16593e-51 1.17248e-51 1.18249e-51 1.19691e-51 1.2162e-51 1.24018e-51 1.26792e-51 1.29783e-51 1.32772e-51 1.35502e-51 1.37699e-51 1.39098e-51 1.39462e-51 1.38606e-51 1.36403e-51 1.32793e-51 1.27784e-51 1.21453e-51 1.13932e-51 1.05411e-51 9.6117e-52 8.63115e-52 7.6271e-52 6.62737e-52 5.65832e-52 4.74335e-52 3.90153e-52 3.14675e-52 2.48722e-52 1.92561e-52 1.45957e-52 1.08272e-52 7.85779e-53 5.57776e-53 3.87171e-53 2.6276e-53 1.74333e-53 1.13067e-53 7.16827e-54 4.44239e-54 2.69129e-54 1.59395e-54 9.22996e-55 5.22619e-55 2.89395e-55 1.56741e-55 8.30491e-56 4.30551e-56 2.18443e-56 1.08483e-56 5.27458e-57 2.51138e-57 1.1712e-57 5.35109e-58 2.39579e-58 1.05136e-58 4.52326e-59 1.90833e-59 7.89693e-60 3.20605e-60 1.2773e-60 4.99487e-61 1.91765e-61 7.2298e-62 2.67729e-62 9.74033e-63 3.48225e-63 1.22363e-63 4.22703e-64 1.43586e-64 4.79704e-65 1.57654e-65 5.098e-66 1.62234e-66 5.08158e-67 1.5662e-67 4.72424e-68 1.30161e-68 0 
0 1.08997e-96 6.42005e-96 3.64039e-95 2.04261e-94 1.13492e-93 6.24401e-93 3.40126e-92 1.83424e-91 9.792e-91 5.17427e-90 2.70612e-89 1.40063e-88 7.17359e-88 3.63534e-87 1.82265e-86 9.04e-86 4.43501e-85 2.15197e-84 1.03263e-83 4.89977e-83 2.29868e-82 1.06611e-81 4.88766e-81 2.21472e-80 9.91758e-80 4.38841e-79 1.91853e-78 8.28584e-78 3.5347e-77 1.48922e-76 6.1958e-76 2.54512e-75 1.03212e-74 4.13141e-74 1.63212e-73 6.36248e-73 2.44711e-72 9.28466e-72 3.47452e-71 1.28224e-70 4.66574e-70 1.67367e-69 5.91763e-69 2.06193e-68 7.07899e-68 2.3942e-67 7.97555e-67 2.6163e-66 8.45004e-66 2.6865e-65 8.40588e-65 2.58796e-64 7.83828e-64 2.33495e-63 6.83964e-63 1.96966e-62 5.57507e-62 1.55065e-61 4.23717e-61 1.13719e-60 2.99697e-60 7.75377e-60 1.96887e-59 4.9055e-59 1.19895e-58 2.87377e-58 6.75346e-58 1.55563e-57 3.51135e-57 7.76449e-57 1.68153e-56 3.56557e-56 7.40065e-56 1.50317e-55 2.98693e-55 5.80506e-55 1.10316e-54 2.04931e-54 3.72052e-54 6.59968e-54 1.14357e-53 1.93523e-53 3.19768e-53 5.15814e-53 8.12144e-53 1.24793e-52 1.87118e-52 2.73758e-52 3.90775e-52 5.44235e-52 7.39543e-52 9.80612e-52 1.26898e-51 1.60299e-51 1.97726e-51 2.38249e-51 2.80584e-51 3.23186e-51 3.64388e-51 4.02579e-51 4.36388e-51 4.64845e-51 4.87503e-51 5.04485e-51 5.16464e-51 5.24563e-51 5.302e-51 5.34901e-51 5.40103e-51 5.46978e-51 5.56303e-51 5.68388e-51 5.83075e-51 5.998e-51 6.17714e-51 6.35823e-51 6.53156e-51 6.68902e-51 6.82513e-51 6.93765e-51 7.02755e-51 7.0985e-51 7.15603e-51 7.20648e-51 7.25592e-51 7.3093e-51 7.36977e-51 7.4384e-51 7.51414e-51 7.59403e-51 7.67356e-51 7.74718e-51 7.80873e-51 7.85198e-51 7.87111e-51 7.86111e-51 7.81827e-51 7.74041e-51 7.62722e-51 7.48027e-51 7.303e-51 7.10048e-51 6.87912e-51 6.64628e-51 6.40982e-51 6.17778e-51 5.95795e-51 5.7576e-51 5.5831e-51 5.43962e-51 5.33073e-51 5.25809e-51 5.22126e-51 5.21765e-51 5.24267e-51 5.29026e-51 5.3535e-51 5.42542e-51 5.49984e-51 5.57196e-51 5.63883e-51 5.69942e-51 5.75439e-51 5.80557e-51 5.8553e-51 5.90568e-51 5.958e-51 6.0123e-51 6.0673e-51 6.1207e-51 6.16967e-51 6.21168e-51 6.24523e-51 6.2706e-51 6.2902e-51 6.30854e-51 6.33186e-51 6.36717e-51 6.42118e-51 6.49907e-51 6.6033e-51 6.73285e-51 6.88282e-51 7.04452e-51 7.20615e-51 7.35377e-51 7.47259e-51 7.54823e-51 7.56795e-51 7.52162e-51 7.40235e-51 7.20691e-51 6.93573e-51 6.5928e-51 6.1854e-51 5.72361e-51 5.21984e-51 4.68814e-51 4.14352e-51 3.60106e-51 3.07507e-51 2.57827e-51 2.12105e-51 1.71099e-51 1.35258e-51 1.04731e-51 7.93928e-52 5.89001e-52 4.27499e-52 3.03474e-52 2.10661e-52 1.42973e-52 9.48588e-53 6.15219e-53 3.90028e-53 2.41702e-53 1.46419e-53 8.6712e-54 5.02072e-54 2.84255e-54 1.57385e-54 8.52319e-55 4.51539e-55 2.34058e-55 1.18733e-55 5.89558e-56 2.86604e-56 1.36437e-56 6.36174e-57 2.90611e-57 1.30089e-57 5.70776e-58 2.45521e-58 1.03565e-58 4.28488e-59 1.7393e-59 6.92816e-60 2.70879e-60 1.03979e-60 3.91947e-61 1.45119e-61 5.27877e-62 1.8869e-62 6.62936e-63 2.28977e-63 7.7769e-64 2.5978e-64 8.53648e-65 2.76004e-65 8.78219e-66 2.75047e-66 8.4763e-67 2.55648e-67 7.04294e-68 0 
0 5.82348e-96 3.42981e-95 1.94465e-94 1.09105e-93 6.06167e-93 3.3347e-92 1.81636e-91 9.7946e-91 5.22847e-90 2.76264e-89 1.44476e-88 7.47737e-88 3.82948e-87 1.94056e-86 9.72894e-86 4.82517e-85 2.36713e-84 1.14855e-83 5.51119e-83 2.61496e-82 1.22676e-81 5.68952e-81 2.60836e-80 1.1819e-79 5.29256e-79 2.34189e-78 1.02384e-77 4.42184e-77 1.88636e-76 7.94766e-76 3.30665e-75 1.35835e-74 5.50868e-74 2.20513e-73 8.71179e-73 3.39628e-72 1.30633e-71 4.95671e-71 1.85504e-70 6.84636e-70 2.4914e-69 8.9378e-69 3.16043e-68 1.10132e-67 3.78143e-67 1.27907e-66 4.26131e-66 1.39805e-65 4.51595e-65 1.43593e-64 4.49357e-64 1.38366e-63 4.19139e-63 1.24877e-62 3.65855e-62 1.05376e-61 2.98315e-61 8.29882e-61 2.26809e-60 6.08837e-60 1.60485e-59 4.15291e-59 1.05474e-58 2.62847e-58 6.42556e-58 1.54049e-57 3.62099e-57 8.34264e-57 1.88352e-56 4.16587e-56 9.02393e-56 1.9139e-55 3.97336e-55 8.07224e-55 1.60439e-54 3.1188e-54 5.92806e-54 1.10147e-53 2.00015e-53 3.5487e-53 6.15029e-53 1.04099e-52 1.72039e-52 2.77561e-52 4.37086e-52 6.71721e-52 1.00733e-51 1.47394e-51 2.1042e-51 2.93082e-51 3.98293e-51 5.28161e-51 6.83513e-51 8.63459e-51 1.06509e-50 1.2834e-50 1.51146e-50 1.74094e-50 1.96286e-50 2.16854e-50 2.35058e-50 2.50378e-50 2.62571e-50 2.71705e-50 2.78141e-50 2.82484e-50 2.85498e-50 2.88004e-50 2.90775e-50 2.94442e-50 2.99422e-50 3.05883e-50 3.13742e-50 3.22696e-50 3.32288e-50 3.41988e-50 3.51273e-50 3.59707e-50 3.66998e-50 3.73025e-50 3.7784e-50 3.81638e-50 3.84717e-50 3.87416e-50 3.90062e-50 3.92917e-50 3.96154e-50 3.99827e-50 4.03882e-50 4.08159e-50 4.12419e-50 4.16362e-50 4.1966e-50 4.21979e-50 4.23007e-50 4.22477e-50 4.20187e-50 4.16022e-50 4.09964e-50 4.02097e-50 3.92606e-50 3.8176e-50 3.69905e-50 3.57433e-50 3.44767e-50 3.32336e-50 3.20558e-50 3.09824e-50 3.00475e-50 2.92789e-50 2.86956e-50 2.83067e-50 2.81098e-50 2.8091e-50 2.82258e-50 2.84815e-50 2.8821e-50 2.92069e-50 2.9606e-50 2.99927e-50 3.03509e-50 3.06753e-50 3.09694e-50 3.12432e-50 3.15091e-50 3.17786e-50 3.20585e-50 3.23491e-50 3.26437e-50 3.29297e-50 3.31921e-50 3.34171e-50 3.35969e-50 3.37327e-50 3.38374e-50 3.39354e-50 3.40598e-50 3.42483e-50 3.4537e-50 3.49535e-50 3.55112e-50 3.62047e-50 3.70076e-50 3.78734e-50 3.87391e-50 3.95298e-50 4.01663e-50 4.05716e-50 4.06772e-50 4.04289e-50 3.97896e-50 3.87417e-50 3.72875e-50 3.5448e-50 3.32621e-50 3.07836e-50 2.80788e-50 2.52232e-50 2.22971e-50 1.93817e-50 1.65537e-50 1.38819e-50 1.14221e-50 9.21536e-51 7.28606e-51 5.64237e-51 4.27779e-51 3.17393e-51 2.30384e-51 1.63556e-51 1.1354e-51 7.70596e-52 5.11274e-52 3.31589e-52 2.10209e-52 1.30261e-52 7.89049e-53 4.67251e-53 2.70518e-53 1.5314e-53 8.47799e-54 4.59064e-54 2.43167e-54 1.26028e-54 6.3921e-55 3.17341e-55 1.54243e-55 7.34139e-56 3.42249e-56 1.56314e-56 6.99592e-57 3.06893e-57 1.31985e-57 5.56629e-58 2.30256e-58 9.34465e-59 3.72157e-59 1.45479e-59 5.58331e-60 2.10425e-60 7.78963e-61 2.83302e-61 1.0125e-61 3.55667e-62 1.22827e-62 4.17101e-63 1.39308e-63 4.57704e-64 1.47966e-64 4.70749e-65 1.47414e-65 4.54237e-66 1.36984e-66 3.77344e-67 0 