# vtk DataFile Version 3.0
Gray-Scott Simulation Output
ASCII
DATASET STRUCTURED_POINTS
DIMENSIONS 256 256 1
SPACING 1.0 1.0 1.0
ORIGIN 0 0 0
POINT_DATA 65536
SCALARS u double
LOOKUP_TABLE default
0 0 0 0 0 0 0 0 0 0 0 0 0 0 0 0 0 0 0 0 0 0 0 0 0 0 0 0 0 0 0 0 0 0 0 0 0 0 0 0 0 0 0 0 0 0 0 0 0 0 0 0 0 0 0 0 0 0 0 0 0 0 0 0 0 0 0 0 0 0 0 0 0 0 0 0 0 0 0 0 0 0 0 0 0 0 0 0 0 0 0 0 0 0 0 0 0 0 0 0 0 0 0 0 0 0 0 0 0 0 0 0 0 0 0 0 0 0 0 0 0 0 0 0 0 0 0 0 0 0 0 0 0 0 0 0 0 0 0 0 0 0 0 0 0 0 0 0 0 0 0 0 0 0 0 0 0 0 0 0 0 0 0 0 0 0 0 0 0 0 0 0 0 0 0 0 0 0 0 0 0 0 0 0 0 0 0 0 0 0 0 0 0 0 0 0 0 0 0 0 0 0 0 0 0 0 0 0 0 0 0 0 0 0 0 0 0 0 0 0 0 0 0 0 0 0 0 0 0 0 0 0 0 0 0 0 0 0 0 0 0 0 0 0 0 0 0 0 0 0 0 0 0 0 0 0 
0 3.45826e-215 1.13642e-213 3.6883e-212 1.18321e-210 3.75148e-209 1.17545e-207 3.63927e-206 1.11325e-204 3.36421e-203 1.00425e-201 2.96084e-200 8.62086e-199 2.47854e-197 7.03553e-196 1.9715e-194 5.45304e-193 1.48856e-191 4.00973e-190 1.06568e-188 2.79408e-187 7.22581e-186 1.84291e-184 4.6347e-183 1.14914e-181 2.80856e-180 6.76524e-179 1.60582e-177 3.75529e-176 8.65063e-175 1.96258e-173 4.38426e-172 9.6421e-171 2.0872e-169 4.44611e-168 9.31811e-167 1.92092e-165 3.89427e-164 7.76202e-163 1.52072e-161 2.92778e-160 5.53772e-159 1.02875e-157 1.87653e-156 3.36e-155 5.90384e-154 1.01767e-152 1.72036e-151 2.85119e-150 4.63105e-149 7.36927e-148 1.14842e-146 1.75202e-145 2.61558e-144 3.81951e-143 5.45341e-142 7.60947e-141 1.0372e-139 1.3803e-138 1.79255e-137 2.27048e-136 2.8033e-135 3.37187e-134 3.94868e-133 4.49913e-132 4.98432e-131 5.36499e-130 5.60647e-129 5.68352e-128 5.58452e-127 5.31378e-126 4.89168e-125 4.35221e-124 3.73846e-123 3.09677e-122 2.47073e-121 1.89617e-120 1.39783e-119 9.88332e-119 6.69143e-118 4.33057e-117 2.67399e-116 1.57208e-115 8.78062e-115 4.64791e-114 2.32555e-113 1.09666e-112 4.85865e-112 2.01534e-111 7.79651e-111 2.80118e-110 9.30371e-110 2.8421e-109 7.94132e-109 2.01764e-108 4.63229e-108 9.55086e-108 1.75823e-107 2.87694e-107 4.17569e-107 5.38726e-107 6.22684e-107 6.54373e-107 6.38608e-107 5.93202e-107 5.36212e-107 4.781e-107 4.2256e-107 3.71578e-107 3.29368e-107 3.03147e-107 3.01107e-107 3.29593e-107 3.90789e-107 4.80084e-107 5.8381e-107 6.81486e-107 7.53658e-107 7.89617e-107 7.89376e-107 7.60981e-107 7.1708e-107 6.71245e-107 6.33378e-107 6.07226e-107 5.93362e-107 5.9423e-107 6.13779e-107 6.51194e-107 6.97153e-107 7.38062e-107 7.64404e-107 7.76165e-107 7.81906e-107 7.92628e-107 8.14813e-107 8.46303e-107 8.75709e-107 8.86395e-107 8.65784e-107 8.14447e-107 7.46316e-107 6.7891e-107 6.22777e-107 5.7952e-107 5.47029e-107 5.23334e-107 5.05216e-107 4.86259e-107 4.5962e-107 4.23446e-107 3.83394e-107 3.51045e-107 3.39606e-107 3.57466e-107 4.02063e-107 4.5897e-107 5.08932e-107 5.38764e-107 5.47207e-107 5.41583e-107 5.3061e-107 5.20088e-107 5.11834e-107 5.03774e-107 4.92371e-107 4.77661e-107 4.6651e-107 4.69858e-107 4.95189e-107 5.4016e-107 5.92537e-107 6.36824e-107 6.62122e-107 6.64474e-107 6.44066e-107 6.03542e-107 5.49571e-107 4.93631e-107 4.49243e-107 4.27397e-107 4.33383e-107 4.6696e-107 5.25051e-107 6.03867e-107 6.98015e-107 7.97451e-107 8.86482e-107 9.47909e-107 9.70184e-107 9.52464e-107 9.05015e-107 8.45017e-107 7.88164e-107 7.39707e-107 6.92014e-107 6.3187e-107 5.51752e-107 4.55119e-107 3.5265e-107 2.55509e-107 1.71849e-107 1.06312e-107 6.0007e-108 3.07518e-108 1.42875e-108 6.02582e-109 2.31411e-109 8.12472e-110 2.61947e-110 7.79031e-111 2.14648e-111 5.50204e-112 1.31711e-112 2.95506e-113 6.23431e-114 1.2405e-114 2.33452e-115 4.16582e-116 7.06515e-117 1.14131e-117 1.75959e-118 2.59387e-119 3.66235e-120 4.96062e-121 6.45536e-122 8.08187e-123 9.74702e-124 1.13377e-124 1.27339e-125 1.38242e-126 1.45212e-127 1.47725e-128 1.45674e-129 1.39364e-130 1.29451e-131 1.16835e-132 1.02534e-133 8.75552e-135 7.27942e-136 5.89631e-137 4.65571e-138 3.58558e-139 2.69483e-140 1.97753e-141 1.41759e-142 9.93145e-144 6.80313e-145 4.55853e-146 2.9891e-147 1.9188e-148 1.2063e-149 7.42988e-151 4.48494e-152 2.64548e-153 0 
0 1.1365e-213 3.72945e-212 1.20872e-210 3.8722e-209 1.22601e-207 3.83611e-206 1.18604e-204 3.62307e-203 1.09337e-201 3.25932e-200 9.59628e-199 2.79024e-197 8.01108e-196 2.27089e-194 6.35481e-193 1.7553e-191 4.78504e-190 1.2872e-188 3.41638e-187 8.94519e-186 2.3102e-184 5.88408e-183 1.47778e-181 3.65912e-180 8.93108e-179 2.14843e-177 5.09273e-176 1.18937e-174 2.73616e-173 6.19928e-172 1.38304e-170 3.03761e-169 6.5667e-168 1.39697e-166 2.9239e-165 6.01966e-164 1.21876e-162 2.42602e-161 4.74677e-160 9.12683e-159 1.72403e-157 3.19858e-156 5.82689e-155 1.04197e-153 1.82848e-152 3.14776e-151 5.31437e-150 8.79629e-149 1.4269e-147 2.26768e-146 3.5294e-145 5.37755e-144 8.0179e-143 1.16936e-141 1.66747e-140 2.32377e-139 3.16338e-138 4.20453e-137 5.45341e-136 6.89875e-135 8.50706e-134 1.02197e-132 1.19531e-131 1.36025e-130 1.50507e-129 1.61803e-128 1.68878e-127 1.70989e-126 1.67806e-125 1.59476e-124 1.46631e-123 1.30302e-122 1.11793e-121 9.2493e-121 7.37071e-120 5.64997e-119 4.16017e-118 2.93799e-117 1.98683e-116 1.28435e-115 7.92137e-115 4.6518e-114 2.59526e-113 1.37224e-112 6.85831e-112 3.23065e-111 1.42978e-110 5.92441e-110 2.28956e-109 8.21783e-109 2.72679e-108 8.32204e-108 2.32326e-107 5.89778e-107 1.35304e-106 2.78781e-106 5.12913e-106 8.38878e-106 1.21717e-105 1.57002e-105 1.81457e-105 1.90696e-105 1.86115e-105 1.72894e-105 1.5629e-105 1.39355e-105 1.2317e-105 1.08318e-105 9.60274e-106 8.83977e-106 8.78135e-106 9.61212e-106 1.13955e-105 1.39969e-105 1.70181e-105 1.98629e-105 2.19652e-105 2.3013e-105 2.30064e-105 2.21797e-105 2.09013e-105 1.95666e-105 1.8464e-105 1.77028e-105 1.72999e-105 1.73264e-105 1.78962e-105 1.89852e-105 2.03226e-105 2.15131e-105 2.22802e-105 2.26234e-105 2.27917e-105 2.31047e-105 2.3751e-105 2.46678e-105 2.55236e-105 2.58345e-105 2.52346e-105 2.37405e-105 2.17567e-105 1.97926e-105 1.81555e-105 1.6893e-105 1.59446e-105 1.52528e-105 1.47238e-105 1.41706e-105 1.3394e-105 1.234e-105 1.11732e-105 1.02308e-105 9.89761e-106 1.04177e-105 1.17165e-105 1.33739e-105 1.48295e-105 1.56996e-105 1.59468e-105 1.5784e-105 1.54651e-105 1.5159e-105 1.49186e-105 1.46837e-105 1.43514e-105 1.39231e-105 1.35987e-105 1.36968e-105 1.44349e-105 1.57448e-105 1.72704e-105 1.85607e-105 1.92982e-105 1.93673e-105 1.8773e-105 1.75927e-105 1.60206e-105 1.43912e-105 1.30979e-105 1.24608e-105 1.26343e-105 1.36119e-105 1.53043e-105 1.76009e-105 2.0344e-105 2.32405e-105 2.58336e-105 2.76227e-105 2.8272e-105 2.7757e-105 2.63765e-105 2.46301e-105 2.29742e-105 2.15612e-105 2.01696e-105 1.84153e-105 1.60797e-105 1.32634e-105 1.02772e-105 7.4464e-106 5.00866e-106 3.0991e-106 1.74982e-106 8.9713e-107 4.1705e-107 1.76012e-107 6.76461e-108 2.377e-108 7.67048e-109 2.28335e-109 6.29751e-110 1.61587e-110 3.87216e-111 8.69683e-112 1.83676e-112 3.6588e-113 6.89326e-114 1.23145e-114 2.09089e-115 3.38152e-116 5.21944e-117 7.70316e-118 1.08891e-118 1.47666e-119 1.9239e-120 2.41154e-121 2.9119e-122 3.3912e-123 3.81343e-124 4.14502e-125 4.35933e-126 4.44022e-127 4.38397e-128 4.19926e-129 3.90541e-130 3.52919e-131 3.10107e-132 2.65136e-133 2.20713e-134 1.79002e-135 1.41518e-136 1.09128e-137 8.21215e-139 6.03395e-140 4.33093e-141 3.03808e-142 2.08378e-143 1.39805e-144 9.17906e-146 5.89992e-147 3.71393e-148 2.29046e-149 1.38439e-150 8.17651e-152 0 
0 3.6888e-212 1.2088e-210 3.91229e-209 1.25158e-207 3.95722e-206 1.23647e-204 3.81761e-203 1.16457e-201 3.5096e-200 1.04476e-198 3.07181e-197 8.91942e-196 2.55735e-194 7.23937e-193 2.02308e-191 5.58044e-190 1.51918e-188 4.0811e-187 1.08171e-185 2.82841e-184 7.29481e-183 1.85548e-181 4.65374e-180 1.15075e-178 2.80496e-177 6.73844e-176 1.59517e-174 3.72042e-173 8.54744e-172 1.934e-170 4.30895e-169 9.45131e-168 2.04048e-166 4.33509e-165 9.06146e-164 1.86309e-162 3.7671e-161 7.48883e-160 1.46335e-158 2.80997e-157 5.30102e-156 9.82212e-155 1.78698e-153 3.19135e-152 5.59299e-151 9.61597e-150 1.62137e-148 2.68022e-147 4.34217e-146 6.89187e-145 1.07127e-143 1.63016e-142 2.42746e-141 3.53578e-140 5.03551e-139 7.00858e-138 9.52882e-137 1.26491e-135 1.63856e-134 2.07024e-133 2.54969e-132 3.05917e-131 3.57359e-130 4.06167e-129 4.48856e-128 4.81948e-127 5.02404e-126 5.08063e-125 4.97995e-124 4.72701e-123 4.34099e-122 3.85294e-121 3.30165e-120 2.72839e-119 2.17165e-118 1.66269e-117 1.22283e-116 8.62572e-116 5.8264e-115 3.76202e-114 2.3176e-113 1.35946e-112 7.57593e-112 4.00128e-111 1.9976e-110 9.3996e-110 4.15551e-109 1.72006e-108 6.64054e-108 2.38108e-107 7.8931e-107 2.4067e-106 6.71285e-106 1.7027e-105 3.90327e-105 8.03688e-105 1.47781e-104 2.41586e-104 3.50414e-104 4.5191e-104 5.22264e-104 5.48868e-104 5.3572e-104 4.97699e-104 4.4992e-104 4.01176e-104 3.54595e-104 3.11864e-104 2.76517e-104 2.54591e-104 2.52939e-104 2.76869e-104 3.28199e-104 4.03046e-104 4.89956e-104 5.7179e-104 6.32273e-104 6.62428e-104 6.6225e-104 6.38477e-104 6.01712e-104 5.63325e-104 5.31614e-104 5.09733e-104 4.98174e-104 4.98965e-104 5.15369e-104 5.46678e-104 5.85111e-104 6.19328e-104 6.41392e-104 6.51286e-104 6.56153e-104 6.65177e-104 6.83776e-104 7.10138e-104 7.34735e-104 7.43666e-104 7.26426e-104 6.83478e-104 6.26432e-104 5.69908e-104 5.2275e-104 4.86359e-104 4.59013e-104 4.39067e-104 4.23811e-104 4.07867e-104 3.85507e-104 3.55174e-104 3.216e-104 2.94487e-104 2.849e-104 2.9986e-104 3.37215e-104 3.84891e-104 4.26781e-104 4.51841e-104 4.58993e-104 4.54341e-104 4.45183e-104 4.36388e-104 4.29477e-104 4.22714e-104 4.13149e-104 4.00831e-104 3.91513e-104 3.94348e-104 4.1559e-104 4.53273e-104 4.97163e-104 5.34293e-104 5.55528e-104 5.57529e-104 5.40439e-104 5.06484e-104 4.61261e-104 4.14383e-104 3.77166e-104 3.58816e-104 3.63783e-104 3.91896e-104 4.40592e-104 5.06683e-104 5.85618e-104 6.68951e-104 7.43543e-104 7.95009e-104 8.13701e-104 7.98918e-104 7.59249e-104 7.09047e-104 6.6141e-104 6.2072e-104 5.80614e-104 5.30076e-104 4.62828e-104 3.81761e-104 2.9581e-104 2.14336e-104 1.4418e-104 8.92274e-105 5.03953e-105 2.58491e-105 1.20234e-105 5.07778e-106 1.95301e-106 6.86835e-107 2.21836e-107 6.60982e-108 1.82478e-108 4.68691e-109 1.12431e-109 2.52787e-110 5.3446e-111 1.06581e-111 2.01024e-112 3.59525e-113 6.11138e-114 9.89507e-115 1.52909e-115 2.25936e-116 3.19756e-117 4.34134e-118 5.66293e-119 7.10678e-120 8.59166e-121 1.00179e-121 1.12789e-122 1.22746e-123 1.29251e-124 1.31811e-125 1.30301e-126 1.24966e-127 1.16365e-128 1.05286e-129 9.26298e-131 7.92961e-132 6.60932e-133 5.36701e-134 4.24849e-135 3.28025e-136 2.47161e-137 1.81835e-138 1.3068e-139 9.17873e-141 6.30363e-142 4.23468e-143 2.7839e-144 1.79168e-145 1.1293e-146 6.97365e-148 4.22047e-149 2.49591e-150 0 
0 1.18346e-210 3.87273e-209 1.25166e-207 3.99861e-206 1.26252e-204 3.93941e-203 1.21461e-201 3.70009e-200 1.11354e-198 3.3103e-197 9.71956e-196 2.81833e-194 8.06957e-193 2.28122e-191 6.36627e-190 1.75367e-188 4.76759e-187 1.27902e-185 3.38547e-184 8.84025e-183 2.27692e-181 5.78368e-180 1.44866e-178 3.57735e-177 8.70806e-176 2.08916e-174 4.939e-173 1.15039e-171 2.63942e-170 5.96419e-169 1.32705e-167 2.90692e-166 6.26754e-165 1.32981e-163 2.77598e-162 5.70008e-161 1.15102e-159 2.28518e-158 4.4595e-157 8.55206e-156 1.61125e-154 2.98155e-153 5.41741e-152 9.66238e-151 1.69119e-149 2.90389e-148 4.89001e-147 8.07307e-146 1.30622e-144 2.07057e-143 3.21439e-142 4.8851e-141 7.26512e-140 1.05688e-138 1.50326e-137 2.08964e-136 2.83748e-135 3.76188e-134 4.86705e-133 6.14158e-132 7.55446e-131 9.05275e-130 1.05619e-128 1.19896e-127 1.32334e-126 1.41915e-125 1.47758e-124 1.49239e-123 1.46104e-122 1.38515e-121 1.2705e-120 1.1263e-119 9.63989e-119 7.95664e-118 6.32553e-117 4.83732e-116 3.55343e-115 2.50363e-114 1.68916e-113 1.08941e-112 6.70366e-112 3.92776e-111 2.18639e-110 1.15347e-109 5.75227e-109 2.70376e-108 1.19405e-107 4.93725e-107 1.90414e-106 6.82084e-106 2.25887e-105 6.8812e-105 1.91764e-104 4.86002e-104 1.11327e-103 2.29069e-103 4.20966e-103 6.87864e-103 9.97401e-103 1.28604e-102 1.48615e-102 1.5619e-102 1.52459e-102 1.41649e-102 1.28057e-102 1.14185e-102 1.00931e-102 8.87756e-103 7.87254e-103 7.24956e-103 7.20336e-103 7.88483e-103 9.34551e-103 1.14747e-102 1.39465e-102 1.62739e-102 1.79943e-102 1.88523e-102 1.88476e-102 1.81717e-102 1.71263e-102 1.60348e-102 1.51332e-102 1.45113e-102 1.41833e-102 1.42068e-102 1.46736e-102 1.55635e-102 1.66555e-102 1.76279e-102 1.82553e-102 1.85372e-102 1.86764e-102 1.89336e-102 1.94627e-102 2.02121e-102 2.09111e-102 2.11648e-102 2.06749e-102 1.94544e-102 1.78325e-102 1.62243e-102 1.48813e-102 1.38442e-102 1.30647e-102 1.24961e-102 1.20611e-102 1.16067e-102 1.09702e-102 1.01072e-102 9.15202e-103 8.38074e-103 8.10801e-103 8.5334e-103 9.59566e-103 1.09516e-102 1.21434e-102 1.28572e-102 1.30617e-102 1.29302e-102 1.26703e-102 1.24205e-102 1.2224e-102 1.20315e-102 1.17593e-102 1.1409e-102 1.11444e-102 1.12254e-102 1.18298e-102 1.29016e-102 1.415e-102 1.52064e-102 1.58109e-102 1.58682e-102 1.53823e-102 1.44166e-102 1.31304e-102 1.1797e-102 1.07381e-102 1.02156e-102 1.03561e-102 1.11554e-102 1.25407e-102 1.44211e-102 1.66668e-102 1.90372e-102 2.11585e-102 2.26222e-102 2.31542e-102 2.27347e-102 2.16077e-102 2.01809e-102 1.88261e-102 1.76676e-102 1.65249e-102 1.50854e-102 1.31711e-102 1.0864e-102 8.41806e-103 6.09962e-103 4.10343e-103 2.53992e-103 1.43498e-103 7.36365e-104 3.42703e-104 1.44829e-104 5.57464e-105 1.96212e-105 6.34294e-106 1.89171e-106 5.22756e-107 1.34404e-107 3.22746e-108 7.2642e-109 1.53751e-109 3.06942e-110 5.79572e-111 1.03771e-111 1.76596e-112 2.86258e-113 4.42868e-114 6.55137e-115 9.28271e-116 1.2618e-116 1.64788e-117 2.0705e-118 2.50611e-119 2.92567e-120 3.29793e-121 3.59343e-122 3.78847e-123 3.86824e-124 3.82864e-125 3.6764e-126 3.42762e-127 3.10515e-128 2.73527e-129 2.34447e-130 1.95656e-131 1.5908e-132 1.26085e-133 9.7473e-135 7.35372e-136 5.41695e-137 3.89799e-138 2.74137e-139 1.88508e-140 1.26799e-141 8.34655e-143 5.37865e-144 3.39455e-145 2.09891e-146 1.27191e-147 7.53156e-149 0 
0 3.75253e-209 1.22627e-207 3.95778e-206 1.26261e-204 3.98105e-203 1.24048e-201 3.8194e-200 1.1619e-198 3.49193e-197 1.03664e-195 3.03958e-194 8.80165e-193 2.51668e-191 7.10479e-190 1.98006e-188 5.4469e-187 1.4788e-185 3.96185e-184 1.04725e-182 2.73093e-181 7.02438e-180 1.78188e-178 4.45713e-177 1.09918e-175 2.67206e-174 6.40199e-173 1.51148e-171 3.51583e-170 8.05589e-169 1.81794e-167 4.03961e-166 8.83709e-165 1.90283e-163 4.03199e-162 8.4057e-161 1.72372e-159 3.47616e-158 6.89235e-157 1.34328e-155 2.57267e-154 4.84071e-153 8.94592e-152 1.62335e-150 2.89162e-149 5.05461e-148 8.66793e-147 1.45776e-145 2.40358e-144 3.88401e-143 6.14891e-142 9.53348e-141 1.44702e-139 2.14927e-138 3.12266e-137 4.43591e-136 6.15846e-135 8.35194e-134 1.1059e-132 1.429e-131 1.80096e-130 2.21251e-129 2.64803e-128 3.08565e-127 3.49843e-126 3.8566e-125 4.13076e-124 4.29555e-123 4.33334e-122 4.23715e-121 4.0122e-120 3.67566e-119 3.25458e-118 2.78223e-117 2.29368e-116 1.82132e-115 1.39117e-114 1.02074e-113 7.18341e-113 4.84092e-112 3.11852e-111 1.91679e-110 1.1218e-109 6.2375e-109 3.28707e-108 1.63744e-107 7.6882e-107 3.39168e-106 1.40096e-105 5.39755e-105 1.93154e-104 6.39057e-104 1.94496e-103 5.41541e-103 1.37135e-102 3.13893e-102 6.4544e-102 1.18546e-101 1.93618e-101 2.80654e-101 3.61805e-101 4.18074e-101 4.39393e-101 4.28931e-101 3.98547e-101 3.60319e-101 3.21296e-101 2.84011e-101 2.49829e-101 2.21579e-101 2.0408e-101 2.02804e-101 2.21989e-101 2.6308e-101 3.22956e-101 3.92455e-101 4.57891e-101 5.06267e-101 5.30401e-101 5.30279e-101 5.11284e-101 4.81899e-101 4.51218e-101 4.25874e-101 4.08402e-101 3.99205e-101 3.99889e-101 4.13025e-101 4.38029e-101 4.68701e-101 4.96016e-101 5.13653e-101 5.21596e-101 5.25531e-101 5.32778e-101 5.47657e-101 5.68717e-101 5.88353e-101 5.95477e-101 5.81716e-101 5.47428e-101 5.01844e-101 4.56609e-101 4.188e-101 3.89581e-101 3.67614e-101 3.51589e-101 3.39327e-101 3.26528e-101 3.08615e-101 2.84338e-101 2.57475e-101 2.35784e-101 2.28113e-101 2.40072e-101 2.69935e-101 3.0806e-101 3.41583e-101 3.61678e-101 3.67461e-101 3.6379e-101 3.56496e-101 3.4948e-101 3.43957e-101 3.38541e-101 3.30884e-101 3.21037e-101 3.13605e-101 3.15895e-101 3.32896e-101 3.63033e-101 3.98135e-101 4.27847e-101 4.4486e-101 4.46485e-101 4.32827e-101 4.05674e-101 3.69509e-101 3.32016e-101 3.02234e-101 2.87523e-101 2.91457e-101 3.13921e-101 3.52878e-101 4.0577e-101 4.68928e-101 5.3558e-101 5.9522e-101 6.36372e-101 6.51341e-101 6.39572e-101 6.07923e-101 5.67835e-101 5.29743e-101 4.97136e-101 4.64949e-101 4.24418e-101 3.70545e-101 3.05636e-101 2.36825e-101 1.71604e-101 1.15453e-101 7.14752e-102 4.03938e-102 2.07373e-102 9.65653e-103 4.08366e-103 1.57303e-103 5.5412e-104 1.79289e-104 5.35206e-105 1.48043e-105 3.8101e-106 9.15868e-107 2.06356e-107 4.37234e-108 8.7383e-109 1.65181e-109 2.96084e-110 5.04441e-111 8.18623e-112 1.26795e-112 1.87786e-113 2.66388e-114 3.62529e-115 4.74013e-116 5.9629e-117 7.22608e-118 8.44597e-119 9.53213e-120 1.03988e-120 1.09766e-121 1.12215e-122 1.11202e-123 1.06912e-124 9.98005e-126 9.05232e-127 7.98396e-128 6.85178e-129 5.72526e-130 4.66081e-131 3.69876e-132 2.86302e-133 2.1627e-134 1.59512e-135 1.14929e-136 8.09301e-138 5.5722e-139 3.75291e-140 2.47352e-141 1.59602e-142 1.00857e-143 6.24422e-145 3.78881e-146 2.24641e-147 0 
0 1.17586e-207 3.8372e-206 1.23674e-204 3.93998e-203 1.24057e-201 3.86021e-200 1.18691e-198 3.60575e-197 1.08216e-195 3.2082e-194 9.39399e-193 2.71648e-191 7.7567e-190 2.18679e-188 6.08615e-187 1.67196e-185 4.5331e-184 1.21282e-182 3.20157e-181 8.33747e-180 2.14164e-178 5.42541e-177 1.35527e-175 3.33777e-174 8.10313e-173 1.93884e-171 4.5714e-170 1.06193e-168 2.43e-167 5.4764e-166 1.21529e-164 2.65507e-163 5.70943e-162 1.2082e-160 2.5155e-159 5.15167e-158 1.03755e-156 2.05452e-155 3.99892e-154 7.64883e-153 1.43733e-151 2.65282e-150 4.80763e-149 8.55265e-148 1.49309e-146 2.55715e-145 4.29506e-144 7.07267e-143 1.14143e-141 1.80474e-140 2.79457e-139 4.23628e-138 6.28423e-137 9.11874e-136 1.29374e-134 1.79386e-133 2.42973e-132 3.21323e-131 4.14682e-130 5.2197e-129 6.40455e-128 7.65575e-127 8.90992e-126 1.00894e-124 1.11087e-123 1.18838e-122 1.23428e-121 1.24363e-120 1.21455e-119 1.14868e-118 1.05106e-117 9.29539e-117 7.93683e-116 6.53539e-115 5.18335e-114 3.95454e-113 2.89815e-112 2.03719e-111 1.37128e-110 8.82368e-110 5.41727e-109 3.16688e-108 1.7589e-107 9.25889e-107 4.60723e-106 2.16089e-105 9.52274e-105 3.92935e-104 1.51234e-103 5.40663e-103 1.78709e-102 5.43397e-102 1.51168e-101 3.82489e-101 8.74839e-101 1.79768e-100 3.29987e-100 5.38714e-100 7.80626e-100 1.00615e-99 1.16256e-99 1.22187e-99 1.19287e-99 1.10845e-99 1.00218e-99 8.93668e-100 7.89993e-100 6.94975e-100 6.16482e-100 5.67896e-100 5.6441e-100 6.17798e-100 7.3206e-100 8.98503e-100 1.09166e-99 1.27352e-99 1.40798e-99 1.47509e-99 1.47477e-99 1.42201e-99 1.34036e-99 1.25511e-99 1.18469e-99 1.13617e-99 1.11067e-99 1.11265e-99 1.14918e-99 1.21863e-99 1.30379e-99 1.37964e-99 1.42864e-99 1.45076e-99 1.46175e-99 1.48194e-99 1.52329e-99 1.5818e-99 1.63632e-99 1.65609e-99 1.61789e-99 1.52267e-99 1.39603e-99 1.27027e-99 1.16505e-99 1.08368e-99 1.02249e-99 9.77844e-100 9.43679e-100 9.08037e-100 8.58206e-100 7.90706e-100 7.16023e-100 6.55721e-100 6.34393e-100 6.67621e-100 7.5061e-100 8.56571e-100 9.49781e-100 1.00571e-99 1.02187e-99 1.01174e-99 9.91508e-100 9.72031e-100 9.56688e-100 9.41626e-100 9.20333e-100 8.9297e-100 8.72338e-100 8.78731e-100 9.26e-100 1.00976e-99 1.10733e-99 1.18994e-99 1.23727e-99 1.24182e-99 1.20387e-99 1.12841e-99 1.0279e-99 9.23683e-100 8.40881e-100 7.99944e-100 8.10823e-100 8.73233e-100 9.81527e-100 1.12858e-99 1.30417e-99 1.48942e-99 1.65516e-99 1.76952e-99 1.81115e-99 1.77852e-99 1.69066e-99 1.57933e-99 1.47347e-99 1.38275e-99 1.29314e-99 1.18033e-99 1.03047e-99 8.49947e-100 6.58591e-100 4.77227e-100 3.21097e-100 1.98821e-100 1.12397e-100 5.77272e-101 2.68962e-101 1.13817e-101 4.38753e-102 1.54684e-102 5.00929e-103 1.49674e-103 4.14413e-104 1.06762e-104 2.56897e-105 5.79429e-106 1.22903e-106 2.45893e-107 4.65326e-108 8.35023e-109 1.42424e-109 2.31395e-110 3.58814e-111 5.3203e-112 7.55602e-113 1.02951e-113 1.3477e-114 1.69736e-115 2.05939e-116 2.40994e-117 2.72314e-118 2.97434e-119 3.14342e-120 3.21745e-121 3.19233e-122 3.07294e-123 2.87208e-124 2.60832e-125 2.30334e-126 1.97917e-127 1.65583e-128 1.34967e-129 1.07242e-130 8.31151e-132 6.28636e-133 4.64244e-134 3.34914e-135 2.36137e-136 1.62792e-137 1.09782e-138 7.2449e-140 4.68073e-141 2.96168e-142 1.83599e-143 1.11546e-144 6.62214e-146 0 
0 3.64083e-206 1.18647e-204 3.81872e-203 1.21488e-201 3.81997e-200 1.187e-198 3.64469e-197 1.10571e-195 3.31392e-194 9.81105e-193 2.86886e-191 8.28462e-190 2.36239e-188 6.65105e-187 1.84857e-185 5.0714e-184 1.37313e-182 3.66879e-181 9.67171e-180 2.5153e-178 6.45235e-177 1.63238e-175 4.07222e-174 1.00157e-172 2.42827e-171 5.80239e-170 1.36627e-168 3.16961e-167 7.24333e-166 1.63024e-164 3.61296e-163 7.8829e-162 1.6929e-160 3.57773e-159 7.43911e-158 1.52151e-156 3.06035e-155 6.05207e-154 1.17644e-152 2.24728e-151 4.2175e-150 7.774e-149 1.40704e-147 2.49986e-146 4.35855e-145 7.4551e-144 1.25058e-142 2.05669e-141 3.31498e-140 5.23469e-139 8.09543e-138 1.22563e-136 1.81584e-135 2.63155e-134 3.72885e-133 5.16383e-132 6.9855e-131 9.22652e-130 1.18924e-128 1.49507e-127 1.83217e-126 2.18739e-125 2.54259e-124 2.87564e-123 3.16228e-122 3.3788e-121 3.50503e-120 3.52728e-119 3.44064e-118 3.25012e-117 2.97035e-116 2.62378e-115 2.23764e-114 1.84035e-113 1.45789e-112 1.11097e-111 8.13242e-111 5.70988e-110 3.83904e-109 2.46744e-108 1.51316e-107 8.83584e-107 4.90199e-106 2.57758e-105 1.28121e-104 6.00268e-104 2.6425e-103 1.08924e-102 4.18806e-102 1.49576e-101 4.93931e-101 1.50051e-100 4.17063e-100 1.05441e-99 2.40987e-99 4.94867e-99 9.07878e-99 1.48147e-98 2.14604e-98 2.76552e-98 3.19521e-98 3.35833e-98 3.27887e-98 3.04708e-98 2.75507e-98 2.45683e-98 2.17191e-98 1.91085e-98 1.69529e-98 1.56196e-98 1.55255e-98 1.69939e-98 2.01342e-98 2.47072e-98 3.00132e-98 3.50086e-98 3.87025e-98 4.05467e-98 4.0539e-98 3.909e-98 3.68479e-98 3.45067e-98 3.25731e-98 3.12412e-98 3.05427e-98 3.05988e-98 3.16031e-98 3.35095e-98 3.58464e-98 3.7928e-98 3.92738e-98 3.98824e-98 4.01861e-98 4.07416e-98 4.18777e-98 4.34839e-98 4.49803e-98 4.55229e-98 4.44743e-98 4.18612e-98 3.83839e-98 3.49281e-98 3.20341e-98 2.97944e-98 2.81095e-98 2.68802e-98 2.59393e-98 2.49583e-98 2.35882e-98 2.17332e-98 1.96809e-98 1.8024e-98 1.74378e-98 1.83503e-98 2.06298e-98 2.35407e-98 2.61022e-98 2.76408e-98 2.80873e-98 2.78108e-98 2.72563e-98 2.67219e-98 2.63006e-98 2.58865e-98 2.53013e-98 2.45498e-98 2.39836e-98 2.416e-98 2.5459e-98 2.77601e-98 3.04404e-98 3.27105e-98 3.4012e-98 3.41381e-98 3.3096e-98 3.1023e-98 2.82619e-98 2.5399e-98 2.31236e-98 2.19977e-98 2.22951e-98 2.40088e-98 2.69842e-98 3.10252e-98 3.58496e-98 4.09388e-98 4.54911e-98 4.86323e-98 4.97767e-98 4.88824e-98 4.64718e-98 4.34159e-98 4.05082e-98 3.80136e-98 3.55476e-98 3.24443e-98 2.83238e-98 2.33618e-98 1.81022e-98 1.31174e-98 8.82659e-99 5.46632e-99 3.09112e-99 1.5883e-99 7.40427e-100 3.13534e-100 1.20954e-100 4.26776e-101 1.38329e-101 4.13699e-102 1.14654e-102 2.95668e-103 7.12183e-104 1.60801e-104 3.41438e-105 6.83863e-106 1.29556e-106 2.32746e-107 3.97427e-108 6.46427e-109 1.00354e-109 1.48971e-110 2.11819e-111 2.88942e-112 3.7869e-113 4.77508e-114 5.80045e-115 6.79594e-116 7.68839e-117 8.40776e-118 8.89647e-119 9.1171e-120 9.05698e-121 8.72895e-122 8.16841e-123 7.42742e-124 6.56708e-125 5.64985e-126 4.73273e-127 3.86245e-128 3.07289e-129 2.38455e-130 1.80581e-131 1.33526e-132 9.64502e-134 6.80902e-135 4.70009e-136 3.17363e-137 2.09707e-138 1.35659e-139 8.59471e-141 5.33482e-142 3.24536e-143 1.92914e-144 0 
0 1.11381e-204 3.62465e-203 1.165e-201 3.70119e-200 1.16217e-198 3.6063e-197 1.10579e-195 3.3501e-194 1.00268e-192 2.96444e-191 8.65653e-190 2.4964e-188 7.10889e-187 1.99872e-185 5.54761e-184 1.51989e-182 4.10966e-181 1.09656e-179 2.88687e-178 7.49772e-177 1.92076e-175 4.85282e-174 1.20899e-172 2.96956e-171 7.19001e-170 1.71578e-168 4.03471e-167 9.34773e-166 2.13336e-164 4.79517e-163 1.06131e-161 2.31255e-160 4.95982e-159 1.04682e-157 2.17378e-156 4.4402e-155 8.91931e-154 1.76157e-152 3.41979e-151 6.52415e-150 1.22281e-148 2.25106e-147 4.06901e-146 7.22002e-145 1.25721e-143 2.14764e-142 3.59801e-141 5.90971e-140 9.51316e-139 1.50032e-137 2.31729e-136 3.50389e-135 5.18465e-134 7.50424e-133 1.062e-131 1.46885e-130 1.98454e-129 2.61793e-128 3.37015e-127 4.23156e-126 5.17925e-125 6.17579e-124 7.16983e-123 8.09902e-122 8.89543e-121 9.49293e-120 9.83561e-119 9.88606e-118 9.63159e-117 9.08733e-116 8.29516e-115 7.31856e-114 6.23408e-113 5.12117e-112 4.05214e-111 3.08427e-110 2.25509e-109 1.5815e-108 1.0621e-107 6.8186e-107 4.17677e-106 2.43622e-105 1.35008e-104 7.0912e-104 3.52092e-103 1.64785e-102 7.24652e-102 2.98393e-101 1.14614e-100 4.0894e-100 1.34912e-99 4.09475e-99 1.13714e-98 2.87255e-98 6.56039e-98 1.34629e-97 2.4685e-97 4.02627e-97 5.83056e-97 7.51223e-97 8.67889e-97 9.12223e-97 8.90708e-97 8.27808e-97 7.48516e-97 6.6751e-97 5.90124e-97 5.19242e-97 4.60738e-97 4.24576e-97 4.22067e-97 4.61979e-97 5.47276e-97 6.71444e-97 8.15487e-97 9.51095e-97 1.05139e-96 1.10147e-96 1.10128e-96 1.06197e-96 1.00112e-96 9.37577e-97 8.85103e-97 8.48974e-97 8.30059e-97 8.31636e-97 8.58917e-97 9.10636e-97 9.74012e-97 1.03047e-96 1.067e-96 1.08355e-96 1.09183e-96 1.10694e-96 1.13779e-96 1.18137e-96 1.22195e-96 1.23666e-96 1.20823e-96 1.13735e-96 1.04299e-96 9.49147e-97 8.70485e-97 8.09559e-97 7.63715e-97 7.30261e-97 7.04651e-97 6.77968e-97 6.40738e-97 5.90354e-97 5.34621e-97 4.89622e-97 4.737e-97 4.98467e-97 5.60344e-97 6.39371e-97 7.08945e-97 7.50777e-97 7.62966e-97 7.55513e-97 7.40489e-97 7.25999e-97 7.14567e-97 7.03319e-97 6.87422e-97 6.67022e-97 6.5167e-97 6.56479e-97 6.91756e-97 7.5423e-97 8.27e-97 8.8865e-97 9.24018e-97 9.2747e-97 8.99192e-97 8.42915e-97 7.67957e-97 6.9023e-97 6.28438e-97 5.97833e-97 6.05865e-97 6.52369e-97 7.33159e-97 8.42901e-97 9.73903e-97 1.11207e-96 1.23563e-96 1.3209e-96 1.35199e-96 1.32777e-96 1.26241e-96 1.17951e-96 1.10058e-96 1.03279e-96 9.6573e-97 8.81361e-97 7.69398e-97 6.346e-97 4.91729e-97 3.5633e-97 2.39789e-97 1.48527e-97 8.40149e-98 4.31875e-98 2.01441e-98 8.53562e-99 3.29529e-99 1.16366e-99 3.775e-100 1.13002e-100 3.1348e-101 8.09199e-102 1.95113e-102 4.40996e-103 9.37391e-104 1.87952e-104 3.56461e-105 6.41089e-106 1.09592e-106 1.78458e-107 2.77362e-108 4.12206e-109 5.86787e-110 8.01373e-111 1.05152e-111 1.32748e-112 1.61445e-113 1.89379e-114 2.14505e-115 2.34858e-116 2.48811e-117 2.55291e-118 2.53917e-119 2.4502e-120 2.29567e-121 2.08999e-122 1.85019e-123 1.59374e-124 1.33669e-125 1.09226e-126 8.70064e-128 6.76011e-129 5.12584e-130 3.79496e-131 2.74468e-132 1.9401e-133 1.3409e-134 9.06561e-136 5.99801e-137 3.88506e-138 2.46454e-139 1.53173e-140 9.33003e-142 5.55316e-143 0 
0 3.36617e-203 1.09394e-201 3.51117e-200 1.11396e-198 3.49299e-197 1.08241e-195 3.31444e-194 1.00276e-192 2.99716e-191 8.84904e-190 2.58051e-188 7.43163e-187 2.1134e-185 5.93391e-184 1.64478e-182 4.50013e-181 1.21516e-179 3.23798e-178 8.51305e-177 2.20803e-175 5.64893e-174 1.4253e-172 3.54613e-171 8.69849e-170 2.1033e-168 5.01252e-167 1.17715e-165 2.72364e-164 6.20774e-163 1.39348e-161 3.08011e-160 6.70262e-159 1.43565e-157 3.02611e-156 6.2757e-155 1.28021e-153 2.56829e-152 5.06578e-151 9.82163e-150 1.87131e-148 3.50282e-147 6.44001e-146 1.16259e-144 2.06025e-143 3.58288e-142 6.11266e-141 1.02277e-139 1.67775e-138 2.69732e-137 4.24854e-136 6.55371e-135 9.89712e-134 1.46262e-132 2.11432e-131 2.98844e-130 4.12813e-129 5.57049e-128 7.33923e-127 9.43633e-126 1.18336e-124 1.44659e-123 1.72281e-122 1.99765e-121 2.25378e-120 2.47239e-119 2.63524e-118 2.72707e-117 2.73774e-116 2.66406e-115 2.51051e-114 2.28892e-113 2.01704e-112 1.71612e-111 1.40809e-110 1.11285e-109 8.46054e-109 6.17883e-108 4.32823e-107 2.90341e-106 1.86185e-105 1.1392e-104 6.63726e-104 3.67409e-103 1.92768e-102 9.56095e-102 4.4699e-101 1.96361e-100 8.07731e-100 3.09941e-99 1.10478e-98 3.64129e-98 1.10417e-97 3.06371e-97 7.73304e-97 1.76478e-96 3.61921e-96 6.63231e-96 1.08129e-95 1.56535e-95 2.01647e-95 2.32948e-95 2.44856e-95 2.391e-95 2.22233e-95 2.00958e-95 1.79216e-95 1.58446e-95 1.39428e-95 1.23738e-95 1.14046e-95 1.13385e-95 1.24105e-95 1.46999e-95 1.80314e-95 2.18955e-95 2.55332e-95 2.82239e-95 2.95681e-95 2.95636e-95 2.85094e-95 2.68775e-95 2.51735e-95 2.37663e-95 2.27979e-95 2.22918e-95 2.23356e-95 2.30679e-95 2.44544e-95 2.61527e-95 2.76658e-95 2.86454e-95 2.90902e-95 2.93135e-95 2.97195e-95 3.0547e-95 3.17154e-95 3.28031e-95 3.31973e-95 3.24353e-95 3.05357e-95 2.80057e-95 2.54874e-95 2.33746e-95 2.17369e-95 2.05042e-95 1.96046e-95 1.89158e-95 1.81986e-95 1.71989e-95 1.58466e-95 1.43509e-95 1.31433e-95 1.27159e-95 1.33801e-95 1.50399e-95 1.71601e-95 1.90274e-95 2.01513e-95 2.04802e-95 2.02817e-95 1.98795e-95 1.94913e-95 1.91847e-95 1.88828e-95 1.84561e-95 1.79089e-95 1.74974e-95 1.7627e-95 1.85737e-95 2.02497e-95 2.22021e-95 2.38566e-95 2.48063e-95 2.48997e-95 2.41414e-95 2.26318e-95 2.06209e-95 1.85356e-95 1.68774e-95 1.60553e-95 1.62697e-95 1.75167e-95 1.96844e-95 2.26293e-95 2.61444e-95 2.98509e-95 3.31652e-95 3.54523e-95 3.62868e-95 3.56386e-95 3.38874e-95 3.16655e-95 2.95483e-95 2.7728e-95 2.59259e-95 2.36593e-95 2.0653e-95 1.70344e-95 1.31994e-95 9.5651e-96 6.43721e-96 3.98794e-96 2.25646e-96 1.16042e-96 5.41553e-97 2.2962e-97 8.87135e-98 3.13526e-98 1.01798e-98 3.05007e-99 8.46927e-100 2.18837e-100 5.28192e-101 1.19507e-101 2.54296e-102 5.10427e-103 9.6911e-104 1.74486e-104 2.98612e-105 4.86803e-106 7.57459e-107 1.12701e-107 1.60618e-108 2.19611e-109 2.88501e-110 3.64644e-111 4.43998e-112 5.2144e-113 5.91331e-114 6.48217e-115 6.87554e-116 7.06317e-117 7.03369e-118 6.79553e-119 6.37476e-120 5.81074e-121 5.15037e-122 4.44199e-123 3.73018e-124 3.05185e-125 2.43406e-126 1.89355e-127 1.43758e-128 1.06566e-129 7.71705e-131 5.46174e-132 3.77967e-133 2.55862e-134 1.69499e-135 1.09929e-136 6.98242e-138 4.34517e-139 2.65012e-140 1.57935e-141 0 