# vtk DataFile Version 3.0
Gray-Scott Simulation Output
ASCII
DATASET STRUCTURED_POINTS
DIMENSIONS 256 256 1
SPACING 1.0 1.0 1.0
ORIGIN 0 0 0
POINT_DATA 65536
SCALARS u double
LOOKUP_TABLE default
0 0 0 0 0 0 0 0 0 0 0 0 0 0 0 0 0 0 0 0 0 0 0 0 0 0 0 0 0 0 0 0 0 0 0 0 0 0 0 0 0 0 0 0 0 0 0 0 0 0 0 0 0 0 0 0 0 0 0 0 0 0 0 0 0 0 0 0 0 0 0 0 0 0 0 0 0 0 0 0 0 0 0 0 0 0 0 0 0 0 0 0 0 0 0 0 0 0 0 0 0 0 0 0 0 0 0 0 0 0 0 0 0 0 0 0 0 0 0 0 0 0 0 0 0 0 0 0 0 0 0 0 0 0 0 0 0 0 0 0 0 0 0 0 0 0 0 0 0 0 0 0 0 0 0 0 0 0 0 0 0 0 0 0 0 0 0 0 0 0 0 0 0 0 0 0 0 0 0 0 0 0 0 0 0 0 0 0 0 0 0 0 0 0 0 0 0 0 0 0 0 0 0 0 0 0 0 0 0 0 0 0 0 0 0 0 0 0 0 0 0 0 0 0 0 0 0 0 0 0 0 0 0 0 0 0 0 0 0 0 0 0 0 0 0 0 0 0 0 0 0 0 0 0 0 0 
0 4.50799e-73 1.43414e-72 4.09075e-72 1.14479e-71 3.1749e-71 8.73636e-71 2.38544e-70 6.46295e-70 1.73739e-69 4.63394e-69 1.22621e-68 3.219e-68 8.38294e-68 2.16556e-67 5.54904e-67 1.41032e-66 3.55508e-66 8.88764e-66 2.20347e-65 5.41735e-65 1.32069e-64 3.19248e-64 7.65142e-64 1.8181e-63 4.2828e-63 1.00012e-62 2.31504e-62 5.31159e-62 1.20788e-61 2.72226e-61 6.08013e-61 1.3457e-60 2.95125e-60 6.41298e-60 1.38064e-59 2.94468e-59 6.22166e-59 1.30213e-58 2.69929e-58 5.542e-58 1.12687e-57 2.26901e-57 4.52406e-57 8.93134e-57 1.7457e-56 3.37796e-56 6.47054e-56 1.22686e-55 2.30242e-55 4.27639e-55 7.86031e-55 1.42968e-54 2.57301e-54 4.58158e-54 8.07097e-54 1.4065e-53 2.42451e-53 4.13375e-53 6.97059e-53 1.16243e-52 1.9169e-52 3.12564e-52 5.03909e-52 8.03171e-52 1.26554e-51 1.97116e-51 3.03472e-51 4.61783e-51 6.94465e-51 1.03212e-50 1.51582e-50 2.19979e-50 3.15433e-50 4.46892e-50 6.25528e-50 8.65014e-50 1.18172e-49 1.5948e-49 2.12611e-49 2.79992e-49 3.64235e-49 4.68047e-49 5.94115e-49 7.44958e-49 9.22748e-49 1.12912e-48 1.36497e-48 1.63029e-48 1.92397e-48 2.24371e-48 2.58599e-48 2.94606e-48 3.3181e-48 3.69542e-48 4.0707e-48 4.43641e-48 4.78516e-48 5.11013e-48 5.4054e-48 5.66635e-48 5.88984e-48 6.0744e-48 6.22021e-48 6.32906e-48 6.40412e-48 6.44968e-48 6.4708e-48 6.47297e-48 6.4617e-48 6.44225e-48 6.41931e-48 6.39685e-48 6.37795e-48 6.3648e-48 6.35873e-48 6.36029e-48 6.36939e-48 6.38545e-48 6.40756e-48 6.43462e-48 6.46545e-48 6.49887e-48 6.53382e-48 6.56927e-48 6.60434e-48 6.63817e-48 6.66999e-48 6.69899e-48 6.72439e-48 6.74536e-48 6.76104e-48 6.77058e-48 6.77314e-48 6.76796e-48 6.75439e-48 6.73197e-48 6.70047e-48 6.65993e-48 6.61068e-48 6.55338e-48 6.48901e-48 6.4188e-48 6.34424e-48 6.26702e-48 6.18891e-48 6.11173e-48 6.03726e-48 5.96711e-48 5.90275e-48 5.84535e-48 5.7958e-48 5.75467e-48 5.7222e-48 5.69832e-48 5.6827e-48 5.67477e-48 5.67379e-48 5.67889e-48 5.68917e-48 5.70371e-48 5.72164e-48 5.74216e-48 5.7646e-48 5.7884e-48 5.81312e-48 5.83848e-48 5.86431e-48 5.89057e-48 5.91735e-48 5.94482e-48 5.97326e-48 6.00304e-48 6.03455e-48 6.06823e-48 6.10448e-48 6.14364e-48 6.1859e-48 6.23127e-48 6.27948e-48 6.32996e-48 6.38175e-48 6.43348e-48 6.48335e-48 6.52915e-48 6.56828e-48 6.59782e-48 6.61459e-48 6.61531e-48 6.59667e-48 6.5555e-48 6.48894e-48 6.39455e-48 6.27045e-48 6.1155e-48 5.92936e-48 5.71255e-48 5.46652e-48 5.19365e-48 4.89716e-48 4.58103e-48 4.24987e-48 3.90874e-48 3.56295e-48 3.21787e-48 2.87868e-48 2.55019e-48 2.23669e-48 1.94178e-48 1.66827e-48 1.41817e-48 1.19266e-48 9.92124e-49 8.16244e-49 6.64094e-49 5.34256e-49 4.24955e-49 3.34177e-49 2.59791e-49 1.99646e-49 1.5166e-49 1.13878e-49 8.45191e-50 6.20032e-50 4.49587e-50 3.2222e-50 2.28263e-50 1.59833e-50 1.10626e-50 7.56858e-51 5.11862e-51 3.42207e-51 2.2617e-51 1.47779e-51 9.54646e-52 6.09736e-52 3.85066e-52 2.40461e-52 1.48489e-52 9.068e-53 5.47672e-53 3.2715e-53 1.93295e-53 1.12971e-53 6.53156e-54 3.73591e-54 2.11414e-54 1.18374e-54 6.55808e-55 3.59474e-55 1.94867e-55 1.04275e-55 5.46762e-56 2.72711e-56 1.12441e-56 0 
0 1.43446e-72 4.56448e-72 1.30232e-71 3.64555e-71 1.01134e-70 2.78372e-70 7.60319e-70 2.0606e-69 5.54112e-69 1.47839e-68 3.91333e-68 1.02765e-67 2.67714e-67 6.91821e-67 1.77335e-66 4.50869e-66 1.13694e-65 2.84339e-65 7.05213e-65 1.73447e-64 4.23009e-64 1.02293e-63 2.45264e-63 5.83021e-63 1.37396e-62 3.20979e-62 7.43306e-62 1.70616e-61 3.88157e-61 8.7519e-61 1.95559e-60 4.33019e-60 9.50084e-60 2.06545e-59 4.44872e-59 9.49282e-59 2.00663e-58 4.20163e-58 8.71408e-58 1.78997e-57 3.64133e-57 7.33557e-57 1.46331e-56 2.89024e-56 5.65195e-56 1.0942e-55 2.09697e-55 3.97793e-55 7.46892e-55 1.38791e-54 2.5523e-54 4.6445e-54 8.36272e-54 1.48979e-53 2.62565e-53 4.57774e-53 7.89464e-53 1.34663e-52 2.27177e-52 3.79006e-52 6.25264e-52 1.01996e-51 1.64501e-51 2.62298e-51 4.13452e-51 6.44213e-51 9.92154e-51 1.51023e-50 2.27193e-50 3.37757e-50 4.96188e-50 7.20271e-50 1.03307e-49 1.46394e-49 2.04954e-49 2.83473e-49 3.87322e-49 5.22784e-49 6.97029e-49 9.18012e-49 1.19429e-48 1.53472e-48 1.9481e-48 2.44263e-48 3.0254e-48 3.70167e-48 4.47432e-48 5.34313e-48 6.30437e-48 7.35034e-48 8.46928e-48 9.64547e-48 1.08596e-47 1.20896e-47 1.33114e-47 1.45001e-47 1.56315e-47 1.66832e-47 1.7636e-47 1.84747e-47 1.91893e-47 1.97751e-47 2.02332e-47 2.05695e-47 2.07949e-47 2.09237e-47 2.09728e-47 2.09603e-47 2.09046e-47 2.0823e-47 2.0731e-47 2.06418e-47 2.05654e-47 2.05089e-47 2.04769e-47 2.04709e-47 2.04906e-47 2.05341e-47 2.05983e-47 2.06795e-47 2.07738e-47 2.08772e-47 2.09863e-47 2.10975e-47 2.12081e-47 2.13151e-47 2.14159e-47 2.15081e-47 2.15889e-47 2.16557e-47 2.17058e-47 2.17364e-47 2.17447e-47 2.17284e-47 2.16853e-47 2.16139e-47 2.15135e-47 2.13842e-47 2.12271e-47 2.10442e-47 2.08387e-47 2.06145e-47 2.03764e-47 2.01298e-47 1.98803e-47 1.96338e-47 1.9396e-47 1.9172e-47 1.89664e-47 1.87832e-47 1.8625e-47 1.84938e-47 1.83902e-47 1.83141e-47 1.82644e-47 1.82392e-47 1.82361e-47 1.82525e-47 1.82853e-47 1.83318e-47 1.83889e-47 1.84543e-47 1.85258e-47 1.86016e-47 1.86804e-47 1.87611e-47 1.88433e-47 1.8927e-47 1.90123e-47 1.90998e-47 1.91906e-47 1.92856e-47 1.93864e-47 1.94943e-47 1.96105e-47 1.97363e-47 1.98724e-47 2.00187e-47 2.01746e-47 2.03382e-47 2.05066e-47 2.06754e-47 2.08389e-47 2.09902e-47 2.11208e-47 2.12214e-47 2.12818e-47 2.12914e-47 2.12395e-47 2.11157e-47 2.09106e-47 2.06163e-47 2.02264e-47 1.9737e-47 1.91466e-47 1.84569e-47 1.7672e-47 1.67995e-47 1.58496e-47 1.48349e-47 1.37702e-47 1.26719e-47 1.15571e-47 1.04432e-47 9.34709e-48 8.28446e-48 7.26934e-48 6.31357e-48 5.42646e-48 4.61469e-48 3.88222e-48 3.23049e-48 2.65857e-48 2.16357e-48 1.74097e-48 1.38508e-48 1.08939e-48 8.4702e-49 6.51003e-49 4.94576e-49 3.7139e-49 2.75654e-49 2.02224e-49 1.46632e-49 1.05088e-49 7.44414e-50 5.21212e-50 3.60714e-50 2.46758e-50 1.6686e-50 1.11538e-50 7.37047e-51 4.81496e-51 3.1098e-51 1.98581e-51 1.2538e-51 7.82767e-52 4.83249e-52 2.95032e-52 1.78137e-52 1.06379e-52 6.28342e-53 3.67119e-53 2.12186e-53 1.21326e-53 6.86347e-54 3.84163e-54 2.12757e-54 1.16579e-54 6.31733e-55 3.37926e-55 1.77129e-55 8.83208e-56 3.64073e-56 0 
0 4.09272e-72 1.30267e-71 3.71795e-71 1.04112e-70 2.88928e-70 7.95572e-70 2.17376e-69 5.89352e-69 1.58543e-68 4.23167e-68 1.12058e-67 2.9439e-67 7.67233e-67 1.98351e-66 5.08655e-66 1.29381e-65 3.26402e-65 8.16673e-65 2.02643e-64 4.98633e-64 1.21667e-63 2.9436e-63 7.0612e-63 1.67937e-62 3.95963e-62 9.25507e-62 2.14435e-61 4.92465e-61 1.12097e-60 2.52884e-60 5.65372e-60 1.25257e-59 2.74978e-59 5.98127e-59 1.28902e-58 2.75212e-58 5.82088e-58 1.21953e-57 2.53074e-57 5.20148e-57 1.05876e-56 2.13416e-56 4.25978e-56 8.41869e-56 1.64728e-55 3.19097e-55 6.11898e-55 1.16145e-54 2.18203e-54 4.05714e-54 7.46529e-54 1.35928e-53 2.44889e-53 4.36512e-53 7.6976e-53 1.34281e-52 2.31705e-52 3.95447e-52 6.67478e-52 1.11416e-51 1.83903e-51 3.00142e-51 4.84313e-51 7.72605e-51 1.21839e-50 1.89926e-50 2.92631e-50 4.45617e-50 6.70629e-50 9.9736e-50 1.4657e-49 2.12831e-49 3.05351e-49 4.32826e-49 6.06117e-49 8.38511e-49 1.14592e-48 1.54695e-48 2.06283e-48 2.71711e-48 3.53507e-48 4.54291e-48 5.76655e-48 7.23016e-48 8.95447e-48 1.09548e-47 1.32394e-47 1.58071e-47 1.86462e-47 2.17336e-47 2.50337e-47 2.84993e-47 3.20728e-47 3.56879e-47 3.92731e-47 4.27544e-47 4.606e-47 4.91236e-47 5.18884e-47 5.43104e-47 5.63604e-47 5.80256e-47 5.93097e-47 6.0232e-47 6.08252e-47 6.1133e-47 6.12061e-47 6.10993e-47 6.08675e-47 6.05626e-47 6.02309e-47 5.99112e-47 5.96337e-47 5.94195e-47 5.92814e-47 5.92243e-47 5.92469e-47 5.93432e-47 5.95038e-47 5.97175e-47 5.99725e-47 6.02571e-47 6.05603e-47 6.08721e-47 6.11835e-47 6.14862e-47 6.17725e-47 6.20348e-47 6.22654e-47 6.24565e-47 6.26001e-47 6.2688e-47 6.27125e-47 6.26664e-47 6.25437e-47 6.234e-47 6.20531e-47 6.16833e-47 6.12335e-47 6.07099e-47 6.01212e-47 5.94789e-47 5.87966e-47 5.80898e-47 5.73749e-47 5.66684e-47 5.59868e-47 5.53449e-47 5.47562e-47 5.42313e-47 5.37784e-47 5.34028e-47 5.31065e-47 5.28889e-47 5.27468e-47 5.26751e-47 5.26667e-47 5.27138e-47 5.2808e-47 5.29409e-47 5.31044e-47 5.32914e-47 5.34957e-47 5.37121e-47 5.39369e-47 5.41674e-47 5.44022e-47 5.4641e-47 5.48847e-47 5.5135e-47 5.53947e-47 5.56671e-47 5.59563e-47 5.62663e-47 5.66013e-47 5.69645e-47 5.73581e-47 5.77827e-47 5.82362e-47 5.87138e-47 5.92071e-47 5.97038e-47 6.0188e-47 6.06393e-47 6.1034e-47 6.13451e-47 6.1543e-47 6.1597e-47 6.14757e-47 6.11489e-47 6.05888e-47 5.97714e-47 5.86777e-47 5.72953e-47 5.56192e-47 5.36525e-47 5.14072e-47 4.89038e-47 4.61712e-47 4.32458e-47 4.017e-47 3.69912e-47 3.37592e-47 3.05249e-47 2.73378e-47 2.42441e-47 2.12853e-47 1.84964e-47 1.59053e-47 1.35322e-47 1.13891e-47 9.48081e-48 7.8051e-48 6.35388e-48 5.11425e-48 4.06978e-48 3.20164e-48 2.48978e-48 1.91387e-48 1.45416e-48 1.09205e-48 8.10589e-49 5.9467e-49 4.3119e-49 3.09014e-49 2.18882e-49 1.5324e-49 1.0604e-49 7.25298e-50 4.90373e-50 3.27729e-50 2.1652e-50 1.41416e-50 9.13125e-51 5.82935e-51 3.6795e-51 2.29647e-51 1.4173e-51 8.65002e-52 5.22099e-52 3.11671e-52 1.84025e-52 1.07478e-52 6.20954e-53 3.54912e-53 2.00693e-53 1.12285e-53 6.21589e-54 3.40447e-54 1.84405e-54 9.85988e-55 5.16605e-55 2.57496e-55 1.06116e-55 0 
0 1.14565e-71 3.64752e-71 1.04141e-70 2.91728e-70 8.09905e-70 2.23096e-69 6.09814e-69 1.654e-68 4.45131e-68 1.1886e-67 3.14885e-67 8.27599e-67 2.15783e-66 5.5811e-66 1.43188e-65 3.64382e-65 9.19699e-65 2.30224e-64 5.7154e-64 1.40706e-63 3.43496e-63 8.3148e-63 1.99562e-62 4.74869e-62 1.12025e-61 2.61985e-61 6.07338e-61 1.39557e-60 3.17845e-60 7.17449e-60 1.60492e-59 3.55774e-59 7.81495e-59 1.7009e-58 3.66781e-58 7.8357e-58 1.6583e-57 3.47643e-57 7.21868e-57 1.48459e-56 3.02376e-56 6.09888e-56 1.2181e-55 2.40887e-55 4.7164e-55 9.14199e-55 1.75417e-54 3.33172e-54 6.26324e-54 1.16528e-53 2.1455e-53 3.90893e-53 7.04669e-53 1.25683e-52 2.21768e-52 3.87092e-52 6.68331e-52 1.14129e-51 1.92748e-51 3.21917e-51 5.31644e-51 8.68138e-51 1.40157e-50 2.23699e-50 3.52943e-50 5.50435e-50 8.48471e-50 1.29261e-49 1.9461e-49 2.89537e-49 4.25655e-49 6.18297e-49 8.87359e-49 1.25817e-48 1.76238e-48 2.43868e-48 3.33341e-48 4.50079e-48 6.00259e-48 7.90732e-48 1.02885e-47 1.32223e-47 1.67838e-47 2.1043e-47 2.60595e-47 3.18773e-47 3.85188e-47 4.59798e-47 5.42247e-47 6.31838e-47 7.27522e-47 8.27903e-47 9.31284e-47 1.03572e-46 1.13911e-46 1.2393e-46 1.33419e-46 1.42185e-46 1.50063e-46 1.56928e-46 1.62696e-46 1.67333e-46 1.70853e-46 1.73315e-46 1.74817e-46 1.75489e-46 1.75484e-46 1.74962e-46 1.74085e-46 1.73006e-46 1.71861e-46 1.70763e-46 1.69801e-46 1.69035e-46 1.68503e-46 1.68219e-46 1.68177e-46 1.6836e-46 1.68739e-46 1.69281e-46 1.69952e-46 1.70715e-46 1.71539e-46 1.72393e-46 1.73253e-46 1.74092e-46 1.74888e-46 1.7562e-46 1.76266e-46 1.76802e-46 1.77205e-46 1.77454e-46 1.77524e-46 1.77397e-46 1.77054e-46 1.76484e-46 1.75679e-46 1.74642e-46 1.73379e-46 1.71908e-46 1.70253e-46 1.68448e-46 1.66529e-46 1.64542e-46 1.62532e-46 1.60545e-46 1.58628e-46 1.56824e-46 1.55169e-46 1.53694e-46 1.52422e-46 1.51367e-46 1.50535e-46 1.49925e-46 1.49527e-46 1.49327e-46 1.49304e-46 1.49437e-46 1.49702e-46 1.50075e-46 1.50534e-46 1.51059e-46 1.51631e-46 1.52238e-46 1.52867e-46 1.53513e-46 1.5417e-46 1.54839e-46 1.55522e-46 1.56224e-46 1.56953e-46 1.57719e-46 1.58534e-46 1.59409e-46 1.60356e-46 1.61385e-46 1.62504e-46 1.63714e-46 1.6501e-46 1.66379e-46 1.67799e-46 1.69236e-46 1.70645e-46 1.71969e-46 1.73141e-46 1.74086e-46 1.7472e-46 1.74953e-46 1.74698e-46 1.73866e-46 1.72376e-46 1.70159e-46 1.67158e-46 1.63335e-46 1.58671e-46 1.53175e-46 1.46875e-46 1.39829e-46 1.32116e-46 1.23838e-46 1.15115e-46 1.06082e-46 9.6882e-47 8.76598e-47 7.85584e-47 6.97117e-47 6.124e-47 5.32456e-47 4.58106e-47 3.89942e-47 3.28335e-47 2.73433e-47 2.25188e-47 1.83379e-47 1.47646e-47 1.17523e-47 9.24744e-48 7.19268e-48 5.52979e-48 4.20202e-48 3.15593e-48 2.34264e-48 1.71866e-48 1.24617e-48 8.93038e-49 6.32516e-49 4.42782e-49 3.06362e-49 2.09516e-49 1.41629e-49 9.46357e-50 6.25092e-50 4.08167e-50 2.63486e-50 1.68161e-50 1.06112e-50 6.62061e-51 4.08464e-51 2.49205e-51 1.5036e-51 8.97249e-52 5.29569e-52 3.09166e-52 1.78546e-52 1.02006e-52 5.76564e-53 3.22436e-53 1.78414e-53 9.76731e-54 5.28807e-54 2.82615e-54 1.48009e-54 7.37446e-55 3.0382e-55 0 
0 3.17819e-71 1.01216e-70 2.89088e-70 8.10129e-70 2.24999e-69 6.20028e-69 1.69548e-68 4.60058e-68 1.23865e-67 3.30888e-67 8.76981e-67 2.30596e-66 6.01515e-66 1.55651e-65 3.99524e-65 1.01719e-64 2.56863e-64 6.4331e-64 1.59785e-63 3.93571e-63 9.61298e-63 2.32818e-62 5.59081e-62 1.33109e-61 3.14186e-61 7.35174e-61 1.70526e-60 3.92067e-60 8.93459e-60 2.01793e-59 4.51674e-59 1.00186e-58 2.20202e-58 4.79557e-58 1.03475e-57 2.21195e-57 4.68418e-57 9.82602e-57 2.04163e-56 4.2015e-56 8.56296e-56 1.72825e-55 3.45398e-55 6.83491e-55 1.33909e-54 2.5973e-54 4.98694e-54 9.47792e-54 1.78289e-53 3.31921e-53 6.11519e-53 1.11485e-52 2.01103e-52 3.58906e-52 6.33681e-52 1.10676e-51 1.91201e-51 3.26702e-51 5.52077e-51 9.22573e-51 1.52448e-50 2.49072e-50 4.02329e-50 6.42473e-50 1.01417e-49 1.58243e-49 2.44037e-49 3.71943e-49 5.60221e-49 8.3382e-49 1.22628e-48 1.78189e-48 2.55815e-48 3.62825e-48 5.08363e-48 7.03616e-48 9.61975e-48 1.2991e-47 1.73284e-47 2.28296e-47 2.97069e-47 3.81795e-47 4.84636e-47 6.076e-47 7.52391e-47 9.20254e-47 1.1118e-46 1.32688e-46 1.56441e-46 1.82233e-46 2.09754e-46 2.38597e-46 2.68265e-46 2.98192e-46 3.27767e-46 3.56363e-46 3.83375e-46 4.08245e-46 4.30502e-46 4.49784e-46 4.65859e-46 4.78636e-46 4.88162e-46 4.94619e-46 4.98302e-46 4.99594e-46 4.98941e-46 4.96818e-46 4.93698e-46 4.90026e-46 4.86197e-46 4.82543e-46 4.79316e-46 4.76695e-46 4.74783e-46 4.7362e-46 4.73189e-46 4.73436e-46 4.74277e-46 4.75614e-46 4.77342e-46 4.79359e-46 4.81569e-46 4.83885e-46 4.86231e-46 4.88534e-46 4.90728e-46 4.92751e-46 4.94539e-46 4.96028e-46 4.97153e-46 4.97847e-46 4.98049e-46 4.977e-46 4.96753e-46 4.95171e-46 4.92936e-46 4.9005e-46 4.86536e-46 4.82441e-46 4.77833e-46 4.72804e-46 4.6746e-46 4.61922e-46 4.5632e-46 4.50785e-46 4.45445e-46 4.40418e-46 4.35808e-46 4.31701e-46 4.28159e-46 4.25224e-46 4.22911e-46 4.21215e-46 4.20111e-46 4.19556e-46 4.19496e-46 4.19869e-46 4.20608e-46 4.21647e-46 4.22923e-46 4.2438e-46 4.2597e-46 4.27653e-46 4.294e-46 4.31191e-46 4.33015e-46 4.34871e-46 4.36767e-46 4.38719e-46 4.40747e-46 4.42882e-46 4.45155e-46 4.47603e-46 4.50258e-46 4.53151e-46 4.56302e-46 4.5972e-46 4.63393e-46 4.67287e-46 4.71341e-46 4.75462e-46 4.79528e-46 4.83381e-46 4.86835e-46 4.89675e-46 4.91668e-46 4.92563e-46 4.92105e-46 4.90047e-46 4.86154e-46 4.80222e-46 4.72084e-46 4.61623e-46 4.48783e-46 4.3357e-46 4.16065e-46 3.96416e-46 3.74844e-46 3.51631e-46 3.27114e-46 3.01672e-46 2.75709e-46 2.49639e-46 2.2387e-46 1.98787e-46 1.74735e-46 1.52012e-46 1.30855e-46 1.1144e-46 9.38762e-47 7.82116e-47 6.44363e-47 5.24908e-47 4.22752e-47 3.3659e-47 2.6491e-47 2.06087e-47 1.58465e-47 1.2043e-47 9.04566e-48 6.71493e-48 4.92644e-48 3.57203e-48 2.5597e-48 1.81284e-48 1.26892e-48 8.77857e-49 6.0026e-49 4.05692e-49 2.71027e-49 1.78979e-49 1.16839e-49 7.54035e-50 4.81098e-50 3.03486e-50 1.89292e-50 1.16745e-50 7.1201e-51 4.29439e-51 2.5616e-51 1.51129e-51 8.81934e-52 5.09107e-52 2.90733e-52 1.64257e-52 9.18165e-53 5.07813e-53 2.77873e-53 1.5037e-53 8.03256e-54 4.20486e-54 2.09419e-54 8.62536e-55 0 
0 8.74783e-71 2.78677e-70 7.96232e-70 2.2322e-69 6.202e-69 1.70978e-68 4.67739e-68 1.26972e-67 3.42003e-67 9.14017e-67 2.42358e-66 6.37555e-66 1.66385e-65 4.30748e-65 1.10618e-64 2.8177e-64 7.11887e-64 1.78381e-63 4.4329e-63 1.09245e-62 2.66973e-62 6.46935e-62 1.55437e-61 3.70278e-61 8.74486e-61 2.0474e-60 4.75176e-60 1.09315e-59 2.49259e-59 5.63302e-59 1.26161e-58 2.80009e-58 6.15821e-58 1.34198e-57 2.89743e-57 6.1977e-57 1.31331e-56 2.75671e-56 5.73156e-56 1.18027e-55 2.40706e-55 4.86134e-55 9.72201e-55 1.92511e-54 3.77417e-54 7.32524e-54 1.40741e-53 2.67662e-53 5.03831e-53 9.38599e-53 1.73037e-52 3.15665e-52 5.69781e-52 1.01753e-51 1.79768e-51 3.1417e-51 5.43087e-51 9.28524e-51 1.57e-50 2.62515e-50 4.34032e-50 7.09525e-50 1.14672e-49 1.83215e-49 2.89361e-49 4.51714e-49 6.96947e-49 1.06272e-48 1.60135e-48 2.38439e-48 3.50801e-48 5.0993e-48 7.32318e-48 1.03897e-47 1.45614e-47 2.01592e-47 2.75674e-47 3.72353e-47 4.96749e-47 6.54531e-47 8.51776e-47 1.09476e-46 1.38966e-46 1.74219e-46 2.15719e-46 2.63816e-46 3.18677e-46 3.80245e-46 4.48198e-46 5.21929e-46 6.00535e-46 6.82829e-46 7.6737e-46 8.52521e-46 9.36516e-46 1.01755e-45 1.09389e-45 1.16392e-45 1.22632e-45 1.28005e-45 1.32447e-45 1.35934e-45 1.38482e-45 1.40146e-45 1.41013e-45 1.41197e-45 1.40827e-45 1.40041e-45 1.38978e-45 1.37765e-45 1.36518e-45 1.35332e-45 1.34278e-45 1.33409e-45 1.32754e-45 1.32323e-45 1.32112e-45 1.32102e-45 1.32271e-45 1.3259e-45 1.33026e-45 1.33551e-45 1.34137e-45 1.34759e-45 1.35392e-45 1.36019e-45 1.36618e-45 1.37172e-45 1.37664e-45 1.38074e-45 1.38385e-45 1.38577e-45 1.38635e-45 1.3854e-45 1.3828e-45 1.37845e-45 1.37229e-45 1.36433e-45 1.35463e-45 1.34332e-45 1.33059e-45 1.31669e-45 1.30192e-45 1.28662e-45 1.27113e-45 1.25583e-45 1.24107e-45 1.22718e-45 1.21444e-45 1.20309e-45 1.19331e-45 1.18521e-45 1.17883e-45 1.17415e-45 1.17111e-45 1.16959e-45 1.16943e-45 1.17047e-45 1.17251e-45 1.17538e-45 1.1789e-45 1.18292e-45 1.1873e-45 1.19193e-45 1.19674e-45 1.20167e-45 1.20669e-45 1.2118e-45 1.21702e-45 1.2224e-45 1.228e-45 1.2339e-45 1.2402e-45 1.24699e-45 1.25438e-45 1.26245e-45 1.27126e-45 1.28084e-45 1.29117e-45 1.30217e-45 1.31366e-45 1.32539e-45 1.33704e-45 1.34817e-45 1.35826e-45 1.36672e-45 1.3729e-45 1.37609e-45 1.37558e-45 1.37065e-45 1.36065e-45 1.34498e-45 1.32315e-45 1.29482e-45 1.25979e-45 1.21806e-45 1.16982e-45 1.11548e-45 1.05564e-45 9.91059e-46 9.22687e-46 8.51577e-46 7.78867e-46 7.05727e-46 6.33315e-46 5.62724e-46 4.94945e-46 4.30831e-46 3.71071e-46 3.16174e-46 2.66467e-46 2.22097e-46 1.8305e-46 1.49167e-46 1.20173e-46 9.57061e-47 7.53417e-47 5.86232e-47 4.50838e-47 3.42668e-47 2.57404e-47 1.9109e-47 1.40196e-47 1.01651e-47 7.28394e-48 5.15827e-48 3.61023e-48 2.49728e-48 1.70732e-48 1.1537e-48 7.70579e-49 5.08754e-49 3.32036e-49 2.14224e-49 1.36642e-49 8.61692e-50 5.37281e-50 3.3125e-50 2.0195e-50 1.21757e-50 7.25994e-51 4.28145e-51 2.49745e-51 1.44105e-51 8.2257e-52 4.64519e-52 2.59537e-52 1.43475e-52 7.84712e-53 4.2444e-53 2.26621e-53 1.18575e-53 5.90313e-54 2.4306e-54 0 
0 2.38924e-70 7.61363e-70 2.17617e-69 6.1032e-69 1.69642e-68 4.67868e-68 1.28047e-67 3.47745e-67 9.37077e-67 2.5055e-66 6.64654e-66 1.74927e-65 4.5673e-65 1.18298e-64 3.03944e-64 7.74605e-64 1.95802e-63 4.90885e-63 1.22052e-62 3.00948e-62 7.35854e-62 1.78412e-61 4.28904e-61 1.0223e-60 2.41575e-60 5.65921e-60 1.3142e-59 3.02515e-59 6.90209e-59 1.56076e-58 3.49775e-58 7.76797e-58 1.70948e-57 3.72762e-57 8.05341e-57 1.72377e-56 3.65509e-56 7.67731e-56 1.59727e-55 3.29138e-55 6.71697e-55 1.35748e-54 2.71661e-54 5.38295e-54 1.05604e-53 2.05104e-53 3.94336e-53 7.50455e-53 1.41356e-52 2.63513e-52 4.86127e-52 8.87411e-52 1.60284e-51 2.86427e-51 5.06357e-51 8.85492e-51 1.53166e-50 2.62031e-50 4.43325e-50 7.4171e-50 1.22703e-49 2.00699e-49 3.24546e-49 5.18813e-49 8.19813e-49 1.28043e-48 1.97652e-48 3.01522e-48 4.54547e-48 6.77095e-48 9.96559e-48 1.44915e-47 2.08185e-47 2.95454e-47 4.14202e-47 5.73578e-47 7.84536e-47 1.05988e-46 1.41419e-46 1.8636e-46 2.42541e-46 3.11745e-46 3.95725e-46 4.96098e-46 6.14228e-46 7.5109e-46 9.07133e-46 1.08216e-45 1.27522e-45 1.48454e-45 1.7075e-45 1.94067e-45 2.1799e-45 2.42048e-45 2.65736e-45 2.88537e-45 3.09953e-45 3.29532e-45 3.46893e-45 3.61748e-45 3.73919e-45 3.83342e-45 3.90074e-45 3.94277e-45 3.96209e-45 3.96199e-45 3.94624e-45 3.91884e-45 3.88375e-45 3.84469e-45 3.80494e-45 3.76722e-45 3.73361e-45 3.70554e-45 3.68386e-45 3.66884e-45 3.66032e-45 3.65781e-45 3.66059e-45 3.66782e-45 3.67859e-45 3.69206e-45 3.7074e-45 3.72388e-45 3.74086e-45 3.75773e-45 3.77395e-45 3.78901e-45 3.8024e-45 3.81361e-45 3.82213e-45 3.82744e-45 3.82904e-45 3.82649e-45 3.81942e-45 3.80754e-45 3.7907e-45 3.76892e-45 3.74236e-45 3.71137e-45 3.67649e-45 3.63838e-45 3.59788e-45 3.55591e-45 3.51344e-45 3.47148e-45 3.431e-45 3.39291e-45 3.35799e-45 3.32689e-45 3.30009e-45 3.2779e-45 3.26043e-45 3.24765e-45 3.23935e-45 3.2352e-45 3.23479e-45 3.23765e-45 3.24326e-45 3.25111e-45 3.26075e-45 3.27173e-45 3.2837e-45 3.29636e-45 3.30948e-45 3.32294e-45 3.33664e-45 3.3506e-45 3.36488e-45 3.37959e-45 3.39493e-45 3.41111e-45 3.42842e-45 3.44713e-45 3.46752e-45 3.48985e-45 3.51431e-45 3.54099e-45 3.56985e-45 3.60065e-45 3.63298e-45 3.66617e-45 3.6993e-45 3.7312e-45 3.76046e-45 3.78544e-45 3.80432e-45 3.81516e-45 3.81594e-45 3.80468e-45 3.77948e-45 3.73864e-45 3.68075e-45 3.60476e-45 3.51007e-45 3.39661e-45 3.26484e-45 3.1158e-45 2.95109e-45 2.77285e-45 2.58364e-45 2.3864e-45 2.18431e-45 1.98065e-45 1.77867e-45 1.58148e-45 1.39187e-45 1.21229e-45 1.04471e-45 8.90613e-46 7.5095e-46 6.26179e-46 5.16291e-46 4.20871e-46 3.39171e-46 2.70188e-46 2.12746e-46 1.65569e-46 1.2735e-46 9.6806e-47 7.27244e-47 5.39913e-47 3.96123e-47 2.87209e-47 2.05794e-47 1.45726e-47 1.01981e-47 7.05332e-48 4.82138e-48 3.25738e-48 2.17521e-48 1.43579e-48 9.36818e-49 6.04252e-49 3.85303e-49 2.42903e-49 1.51403e-49 9.33117e-50 5.68674e-50 3.42724e-50 2.04272e-50 1.20416e-50 7.02108e-51 4.04945e-51 2.31043e-51 1.30413e-51 7.28303e-52 4.02421e-52 2.1999e-52 1.18931e-52 6.34694e-53 3.31936e-53 1.65181e-53 6.79926e-54 0 
0 6.47504e-70 2.064e-69 5.90168e-69 1.65583e-68 4.60439e-68 1.27042e-67 3.4784e-67 9.45065e-67 2.54784e-66 6.81536e-66 1.80881e-65 4.76279e-65 1.24415e-64 3.22407e-64 8.28775e-64 2.11322e-63 5.34448e-63 1.34059e-62 3.335e-62 8.22767e-62 2.01288e-61 4.88306e-61 1.17456e-60 2.80121e-60 6.62329e-60 1.55251e-59 3.60747e-59 8.30905e-59 1.89694e-58 4.29221e-58 9.62512e-58 2.13896e-57 4.7102e-57 1.02775e-56 2.22189e-56 4.75893e-56 1.00976e-55 2.12237e-55 4.41859e-55 9.11125e-55 1.86067e-54 3.76295e-54 7.53564e-54 1.49421e-53 2.9334e-53 5.70118e-53 1.09687e-52 2.08888e-52 3.93733e-52 7.34487e-52 1.3559e-51 2.47682e-51 4.47664e-51 8.00501e-51 1.41609e-50 2.47798e-50 4.28896e-50 7.34203e-50 1.24295e-49 2.08078e-49 3.44432e-49 5.63697e-49 9.12052e-49 1.45878e-48 2.30634e-48 3.604e-48 5.566e-48 8.49501e-48 1.2812e-47 1.90929e-47 2.81125e-47 4.0895e-47 5.87703e-47 8.3433e-47 1.17e-46 1.62061e-46 2.21717e-46 2.9959e-46 3.99805e-46 5.26926e-46 6.85838e-46 8.81574e-46 1.11907e-45 1.40288e-45 1.7368e-45 2.12355e-45 2.56431e-45 3.05844e-45 3.60314e-45 4.19326e-45 4.82126e-45 5.47731e-45 6.14954e-45 6.82451e-45 7.48781e-45 8.12479e-45 8.72132e-45 9.26464e-45 9.74403e-45 1.01515e-44 1.04821e-44 1.07342e-44 1.09097e-44 1.10134e-44 1.10528e-44 1.10375e-44 1.09782e-44 1.08865e-44 1.07738e-44 1.06506e-44 1.05263e-44 1.04085e-44 1.03033e-44 1.02146e-44 1.01449e-44 1.00947e-44 1.00636e-44 1.00503e-44 1.00525e-44 1.00678e-44 1.00936e-44 1.01275e-44 1.01672e-44 1.02104e-44 1.02554e-44 1.03004e-44 1.0344e-44 1.03845e-44 1.04207e-44 1.04511e-44 1.04743e-44 1.04888e-44 1.04932e-44 1.04864e-44 1.04673e-44 1.04352e-44 1.03895e-44 1.03304e-44 1.02582e-44 1.0174e-44 1.00791e-44 9.9755e-45 9.86533e-45 9.75113e-45 9.63558e-45 9.52142e-45 9.41129e-45 9.30767e-45 9.2127e-45 9.12814e-45 9.0553e-45 8.99501e-45 8.9476e-45 8.91291e-45 8.89042e-45 8.87922e-45 8.87818e-45 8.88598e-45 8.90125e-45 8.92261e-45 8.94876e-45 8.97855e-45 9.011e-45 9.04529e-45 9.08085e-45 9.11728e-45 9.1544e-45 9.19221e-45 9.23091e-45 9.27083e-45 9.3125e-45 9.35656e-45 9.40376e-45 9.45489e-45 9.51077e-45 9.57212e-45 9.63951e-45 9.71323e-45 9.79322e-45 9.87893e-45 9.96924e-45 1.00624e-44 1.01559e-44 1.02467e-44 1.03309e-44 1.04039e-44 1.04609e-44 1.04965e-44 1.05049e-44 1.04808e-44 1.04187e-44 1.03138e-44 1.01621e-44 9.9604e-45 9.7069e-45 9.40114e-45 9.04422e-45 8.63881e-45 8.18918e-45 7.70108e-45 7.18156e-45 6.63868e-45 6.08125e-45 5.51839e-45 4.95921e-45 4.4124e-45 3.88589e-45 3.38657e-45 2.92008e-45 2.49066e-45 2.10109e-45 1.75275e-45 1.44573e-45 1.17895e-45 9.50389e-46 7.57299e-46 5.96436e-46 4.64264e-46 3.5715e-46 2.71523e-46 2.03995e-46 1.51455e-46 1.11121e-46 8.05669e-47 5.77256e-47 4.08731e-47 2.86005e-47 1.97783e-47 1.35174e-47 9.1308e-48 6.09605e-48 4.02284e-48 2.62412e-48 1.69209e-48 1.07864e-48 6.79775e-49 4.23564e-49 2.60953e-49 1.58974e-49 9.57712e-50 5.70587e-50 3.36213e-50 1.9595e-50 1.12964e-50 6.44225e-51 3.63465e-51 2.02882e-51 1.12047e-51 6.12219e-52 3.30812e-52 1.76455e-52 9.22394e-53 4.58815e-53 1.88802e-53 0 
0 1.74113e-69 5.55181e-69 1.58807e-68 4.45747e-68 1.24002e-67 3.42286e-67 9.37592e-67 2.54854e-66 6.87384e-66 1.83958e-65 4.88459e-65 1.28679e-64 3.36304e-64 8.71931e-64 2.24251e-63 5.72095e-63 1.44763e-62 3.63315e-62 9.04312e-62 2.23224e-61 5.46418e-61 1.32632e-60 3.19216e-60 7.61744e-60 1.80217e-59 4.22689e-59 9.82777e-59 2.26503e-58 5.17426e-58 1.17153e-57 2.6288e-57 5.8457e-57 1.28813e-56 2.81253e-56 6.08445e-56 1.30407e-55 2.76889e-55 5.82379e-55 1.2133e-54 2.50359e-54 5.11632e-54 1.03543e-53 2.07499e-53 4.1173e-53 8.08868e-53 1.57317e-52 3.02881e-52 5.7721e-52 1.08874e-51 2.0324e-51 3.7545e-51 6.86307e-51 1.24128e-50 2.22113e-50 3.93179e-50 6.8847e-50 1.1924e-49 2.0425e-49 3.45995e-49 5.79577e-49 9.59949e-49 1.57197e-48 2.54488e-48 4.07266e-48 6.44234e-48 1.00723e-47 1.55634e-47 2.37646e-47 3.58576e-47 5.34592e-47 7.87455e-47 1.14594e-46 1.64742e-46 2.33951e-46 3.28171e-46 4.54684e-46 6.22201e-46 8.40902e-46 1.12238e-45 1.47944e-45 1.9258e-45 2.47555e-45 3.14251e-45 3.93937e-45 4.87672e-45 5.96198e-45 7.19829e-45 8.58356e-45 1.01096e-44 1.17617e-44 1.35182e-44 1.53511e-44 1.72267e-44 1.9107e-44 2.09512e-44 2.27179e-44 2.43675e-44 2.58641e-44 2.71777e-44 2.82863e-44 2.91764e-44 2.98443e-44 3.02954e-44 3.05441e-44 3.06121e-44 3.05267e-44 3.0319e-44 3.00219e-44 2.96675e-44 2.92858e-44 2.89035e-44 2.85421e-44 2.82183e-44 2.79435e-44 2.77239e-44 2.75618e-44 2.74553e-44 2.74003e-44 2.73908e-44 2.74196e-44 2.74795e-44 2.75632e-44 2.76642e-44 2.77764e-44 2.78943e-44 2.80134e-44 2.81291e-44 2.82375e-44 2.83345e-44 2.84161e-44 2.84785e-44 2.85178e-44 2.85301e-44 2.85122e-44 2.8461e-44 2.83747e-44 2.82518e-44 2.80926e-44 2.78981e-44 2.7671e-44 2.74152e-44 2.71355e-44 2.68382e-44 2.653e-44 2.62181e-44 2.591e-44 2.56128e-44 2.53332e-44 2.50769e-44 2.48489e-44 2.46525e-44 2.449e-44 2.43623e-44 2.42689e-44 2.42085e-44 2.41785e-44 2.41759e-44 2.4197e-44 2.42383e-44 2.42958e-44 2.43663e-44 2.44464e-44 2.45337e-44 2.46258e-44 2.47214e-44 2.48192e-44 2.49189e-44 2.50205e-44 2.51246e-44 2.52321e-44 2.53444e-44 2.54634e-44 2.55911e-44 2.57298e-44 2.58817e-44 2.6049e-44 2.62333e-44 2.64355e-44 2.66556e-44 2.68923e-44 2.71427e-44 2.74023e-44 2.76645e-44 2.79209e-44 2.8161e-44 2.83729e-44 2.85428e-44 2.8656e-44 2.86971e-44 2.86507e-44 2.85017e-44 2.82367e-44 2.78439e-44 2.73143e-44 2.66422e-44 2.58257e-44 2.48673e-44 2.37738e-44 2.25563e-44 2.12304e-44 1.9815e-44 1.83323e-44 1.68065e-44 1.52626e-44 1.37261e-44 1.22211e-44 1.07699e-44 9.39179e-45 8.10273e-45 6.9148e-45 5.83607e-45 4.87068e-45 4.01911e-45 3.27863e-45 2.64384e-45 2.10727e-45 1.66003e-45 1.29242e-45 9.94388e-46 7.5607e-46 5.68082e-46 4.21789e-46 3.09466e-46 2.2437e-46 1.60751e-46 1.13812e-46 7.96296e-47 5.50589e-47 3.76237e-47 2.54092e-47 1.69604e-47 1.11896e-47 7.29708e-48 4.70395e-48 2.99765e-48 1.88854e-48 1.17633e-48 7.24459e-49 4.41173e-49 2.65672e-49 1.58216e-49 9.31875e-50 5.42869e-50 3.1282e-50 1.78315e-50 1.00555e-50 5.61015e-51 3.09681e-51 1.69123e-51 9.13387e-52 4.86954e-52 2.54424e-52 1.26501e-52 5.20385e-53 0 