# vtk DataFile Version 3.0
Gray-Scott Simulation Output
ASCII
DATASET STRUCTURED_POINTS
DIMENSIONS 256 256 1
SPACING 1.0 1.0 1.0
ORIGIN 0 0 0
POINT_DATA 65536
SCALARS u double
LOOKUP_TABLE default
0 0 0 0 0 0 0 0 0 0 0 0 0 0 0 0 0 0 0 0 0 0 0 0 0 0 0 0 0 0 0 0 0 0 0 0 0 0 0 0 0 0 0 0 0 0 0 0 0 0 0 0 0 0 0 0 0 0 0 0 0 0 0 0 0 0 0 0 0 0 0 0 0 0 0 0 0 0 0 0 0 0 0 0 0 0 0 0 0 0 0 0 0 0 0 0 0 0 0 0 0 0 0 0 0 0 0 0 0 0 0 0 0 0 0 0 0 0 0 0 0 0 0 0 0 0 0 0 0 0 0 0 0 0 0 0 0 0 0 0 0 0 0 0 0 0 0 0 0 0 0 0 0 0 0 0 0 0 0 0 0 0 0 0 0 0 0 0 0 0 0 0 0 0 0 0 0 0 0 0 0 0 0 0 0 0 0 0 0 0 0 0 0 0 0 0 0 0 0 0 0 0 0 0 0 0 0 0 0 0 0 0 0 0 0 0 0 0 0 0 0 0 0 0 0 0 0 0 0 0 0 0 0 0 0 0 0 0 0 0 0 0 0 0 0 0 0 0 0 0 0 0 0 0 0 0 
0 5.08671e-75 1.71351e-74 5.23389e-74 1.572e-73 4.67969e-73 1.38183e-72 4.04748e-72 1.17594e-71 3.38872e-71 9.68525e-71 2.74529e-70 7.71693e-70 2.15107e-69 5.94559e-69 1.62945e-68 4.42757e-68 1.19274e-67 3.18534e-67 8.43273e-67 2.21288e-66 5.75571e-66 1.48376e-65 3.79074e-65 9.5974e-65 2.40782e-64 5.98562e-64 1.47427e-63 3.59751e-63 8.69666e-63 2.08257e-62 4.93986e-62 1.16056e-61 2.70037e-61 6.22238e-61 1.41982e-60 3.2079e-60 7.17612e-60 1.5893e-59 3.48447e-59 7.56223e-59 1.62447e-58 3.45372e-58 7.2668e-58 1.51302e-57 3.11715e-57 6.354e-57 1.28138e-56 2.5563e-56 5.04446e-56 9.84579e-56 1.90057e-55 3.62806e-55 6.84839e-55 1.27817e-54 2.3585e-54 4.30226e-54 7.75765e-54 1.38261e-53 2.4354e-53 4.23938e-53 7.29222e-53 1.23938e-52 2.08115e-52 3.45238e-52 5.65736e-52 9.15702e-52 1.46388e-51 2.31118e-51 3.60335e-51 5.54744e-51 8.43256e-51 1.26555e-50 1.8751e-50 2.74262e-50 3.95986e-50 5.64347e-50 7.93857e-50 1.10218e-49 1.51028e-49 2.04243e-49 2.72593e-49 3.5905e-49 4.6673e-49 5.98759e-49 7.58095e-49 9.4732e-49 1.1684e-48 1.42246e-48 1.70955e-48 2.02844e-48 2.37652e-48 2.74974e-48 3.14266e-48 3.54864e-48 3.96007e-48 4.3688e-48 4.76652e-48 5.14527e-48 5.49791e-48 5.81855e-48 6.10287e-48 6.34838e-48 6.55446e-48 6.72236e-48 6.85496e-48 6.95646e-48 7.03204e-48 7.08735e-48 7.12814e-48 7.15984e-48 7.18724e-48 7.21424e-48 7.24378e-48 7.27775e-48 7.3171e-48 7.36198e-48 7.41187e-48 7.46586e-48 7.52279e-48 7.58142e-48 7.64061e-48 7.69933e-48 7.75674e-48 7.81214e-48 7.86497e-48 7.9147e-48 7.96078e-48 8.0026e-48 8.03937e-48 8.07018e-48 8.09397e-48 8.10958e-48 8.11579e-48 8.11145e-48 8.09551e-48 8.0672e-48 8.02604e-48 7.97197e-48 7.90538e-48 7.82714e-48 7.73861e-48 7.64158e-48 7.5382e-48 7.43094e-48 7.32242e-48 7.21532e-48 7.11226e-48 7.01564e-48 6.92757e-48 6.84977e-48 6.78348e-48 6.72946e-48 6.68797e-48 6.6588e-48 6.64132e-48 6.63458e-48 6.63737e-48 6.64834e-48 6.66607e-48 6.68919e-48 6.71642e-48 6.74662e-48 6.77882e-48 6.81226e-48 6.84635e-48 6.8807e-48 6.91508e-48 6.94942e-48 6.9838e-48 7.01843e-48 7.05365e-48 7.08991e-48 7.12777e-48 7.16782e-48 7.21065e-48 7.25677e-48 7.30654e-48 7.36004e-48 7.41696e-48 7.47657e-48 7.53754e-48 7.59798e-48 7.65538e-48 7.70662e-48 7.74808e-48 7.77574e-48 7.7853e-48 7.7724e-48 7.73281e-48 7.66262e-48 7.55847e-48 7.41778e-48 7.23884e-48 7.02102e-48 6.76487e-48 6.4721e-48 6.14563e-48 5.78948e-48 5.40869e-48 5.00908e-48 4.59705e-48 4.17935e-48 3.76275e-48 3.3538e-48 2.95856e-48 2.58239e-48 2.22973e-48 1.90403e-48 1.60767e-48 1.34196e-48 1.1072e-48 9.02802e-49 7.27407e-49 5.79067e-49 4.55409e-49 3.53799e-49 2.71495e-49 2.05773e-49 1.54033e-49 1.13874e-49 8.31391e-50 5.99445e-50 4.26828e-50 3.00134e-50 2.0842e-50 1.42934e-50 9.68075e-51 6.47551e-51 4.27804e-51 2.79151e-51 1.79919e-51 1.14545e-51 7.2038e-52 4.47566e-52 2.74719e-52 1.66603e-52 9.98314e-53 5.91113e-53 3.45879e-53 2.00012e-53 1.14314e-53 6.45782e-54 3.60618e-54 1.99075e-54 1.08649e-54 5.86284e-55 3.12821e-55 1.65049e-55 8.61116e-56 4.44151e-56 2.26176e-56 1.13046e-56 5.40227e-57 2.159e-57 0 
0 1.71392e-74 5.77461e-74 1.76425e-73 5.30024e-73 1.57822e-72 4.66142e-72 1.36572e-71 3.96897e-71 1.14405e-70 3.27071e-70 9.27348e-70 2.6075e-69 7.27049e-69 2.01018e-68 5.51079e-68 1.49787e-67 4.0364e-67 1.07831e-66 2.85563e-66 7.49616e-66 1.95042e-65 5.02974e-65 1.28547e-64 3.25573e-64 8.17109e-64 2.03201e-63 5.0068e-63 1.22223e-62 2.95579e-62 7.08101e-62 1.68029e-61 3.94925e-61 9.19291e-61 2.11918e-60 4.8376e-60 1.09347e-59 2.44717e-59 5.42217e-59 1.18932e-58 2.5823e-58 5.54965e-58 1.18043e-57 2.48484e-57 5.1761e-57 1.06689e-56 2.17577e-56 4.38984e-56 8.76172e-56 1.72982e-55 3.37787e-55 6.52354e-55 1.2459e-54 2.3529e-54 4.3935e-54 8.11082e-54 1.48023e-53 2.67034e-53 4.76143e-53 8.39087e-53 1.46129e-52 2.51471e-52 4.27587e-52 7.18307e-52 1.19209e-51 1.95426e-51 3.16444e-51 5.06078e-51 7.99299e-51 1.24664e-50 1.91989e-50 2.91935e-50 4.38271e-50 6.49554e-50 9.50335e-50 1.37247e-49 1.95646e-49 2.75269e-49 3.8225e-49 5.23869e-49 7.08554e-49 9.45774e-49 1.24584e-48 1.61955e-48 2.07772e-48 2.63059e-48 3.28705e-48 4.05384e-48 4.93475e-48 5.92979e-48 7.03456e-48 8.23979e-48 9.53123e-48 1.08898e-47 1.22923e-47 1.37121e-47 1.51207e-47 1.64893e-47 1.77903e-47 1.89989e-47 2.00947e-47 2.10631e-47 2.18955e-47 2.25902e-47 2.31518e-47 2.35906e-47 2.39215e-47 2.41628e-47 2.43344e-47 2.44565e-47 2.45479e-47 2.46255e-47 2.47028e-47 2.47901e-47 2.4894e-47 2.50176e-47 2.51615e-47 2.53238e-47 2.55013e-47 2.56899e-47 2.58852e-47 2.60831e-47 2.62801e-47 2.64732e-47 2.66599e-47 2.68382e-47 2.70063e-47 2.71623e-47 2.7304e-47 2.74287e-47 2.75333e-47 2.76143e-47 2.76675e-47 2.7689e-47 2.76746e-47 2.76208e-47 2.75251e-47 2.73857e-47 2.72024e-47 2.69765e-47 2.67111e-47 2.64106e-47 2.60812e-47 2.57302e-47 2.5366e-47 2.49976e-47 2.46339e-47 2.4284e-47 2.3956e-47 2.36571e-47 2.3393e-47 2.31681e-47 2.2985e-47 2.28443e-47 2.27455e-47 2.26864e-47 2.26638e-47 2.26734e-47 2.27108e-47 2.2771e-47 2.28495e-47 2.29418e-47 2.30441e-47 2.31532e-47 2.32664e-47 2.33818e-47 2.34981e-47 2.36145e-47 2.37307e-47 2.3847e-47 2.39643e-47 2.40836e-47 2.42065e-47 2.43349e-47 2.44709e-47 2.46165e-47 2.47735e-47 2.49432e-47 2.51258e-47 2.53206e-47 2.55249e-47 2.57343e-47 2.59426e-47 2.61412e-47 2.63195e-47 2.64652e-47 2.65647e-47 2.66033e-47 2.6566e-47 2.64384e-47 2.62068e-47 2.58598e-47 2.53881e-47 2.47859e-47 2.40505e-47 2.31836e-47 2.21907e-47 2.10815e-47 1.98696e-47 1.8572e-47 1.72084e-47 1.58007e-47 1.43721e-47 1.29456e-47 1.1544e-47 1.01881e-47 8.89649e-48 7.68466e-48 6.56465e-48 5.54484e-48 4.62993e-48 3.82114e-48 3.11657e-48 2.51169e-48 1.99991e-48 1.57313e-48 1.22233e-48 9.38094e-49 7.11075e-49 5.32319e-49 3.9355e-49 2.87334e-49 2.0717e-49 1.47508e-49 1.03717e-49 7.20178e-50 4.93842e-50 3.34431e-50 2.23669e-50 1.47742e-50 9.63867e-51 6.21104e-51 3.95337e-51 2.4857e-51 1.54396e-51 9.47436e-52 5.7441e-52 3.44095e-52 2.03681e-52 1.19142e-52 6.88742e-53 3.93509e-53 2.22224e-53 1.24051e-53 6.84564e-54 3.73479e-54 2.0146e-54 1.07452e-54 5.6672e-55 2.95564e-55 1.52389e-55 7.75724e-56 3.87575e-56 1.85155e-56 7.39788e-57 0 
0 5.23663e-74 1.76476e-73 5.39317e-73 1.62072e-72 4.82737e-72 1.42625e-71 4.17999e-71 1.21515e-70 3.50383e-70 1.00204e-69 2.84207e-69 7.99409e-69 2.22978e-68 6.16726e-68 1.69135e-67 4.59895e-67 1.23978e-66 3.31335e-66 8.77805e-66 2.30522e-65 6.00043e-65 1.54804e-64 3.95808e-64 1.00291e-63 2.51818e-63 6.26513e-63 1.54441e-62 3.77189e-62 9.12612e-62 2.18734e-61 5.193e-61 1.22113e-60 2.84393e-60 6.55926e-60 1.4981e-59 3.38799e-59 7.5863e-59 1.68178e-58 3.69087e-58 8.01815e-58 1.72414e-57 3.66933e-57 7.72835e-57 1.61078e-56 3.32199e-56 6.77858e-56 1.36843e-55 2.73283e-55 5.3985e-55 1.05479e-54 2.03825e-54 3.89499e-54 7.36e-54 1.3751e-53 2.54001e-53 4.63817e-53 8.37198e-53 1.49363e-52 2.63361e-52 4.589e-52 7.9014e-52 1.34422e-51 2.25934e-51 3.75147e-51 6.15306e-51 9.96817e-51 1.59492e-50 2.52016e-50 3.93231e-50 6.05851e-50 9.21615e-50 1.38411e-49 2.05209e-49 3.00333e-49 4.33873e-49 6.1866e-49 8.70662e-49 1.20931e-48 1.65767e-48 2.24243e-48 2.99357e-48 3.94371e-48 5.127e-48 6.5776e-48 8.32773e-48 1.04053e-47 1.28314e-47 1.56175e-47 1.87631e-47 2.22538e-47 2.60593e-47 3.01339e-47 3.44164e-47 3.88323e-47 4.3297e-47 4.77198e-47 5.2009e-47 5.6077e-47 5.98457e-47 6.32513e-47 6.62476e-47 6.8809e-47 7.09309e-47 7.26292e-47 7.39377e-47 7.4905e-47 7.55899e-47 7.60563e-47 7.63689e-47 7.65884e-47 7.67681e-47 7.69515e-47 7.71708e-47 7.74469e-47 7.77899e-47 7.8201e-47 7.86743e-47 7.91992e-47 7.97625e-47 8.03501e-47 8.0949e-47 8.15474e-47 8.21357e-47 8.2706e-47 8.32519e-47 8.37674e-47 8.42464e-47 8.46821e-47 8.50663e-47 8.53891e-47 8.56393e-47 8.58044e-47 8.58716e-47 8.58286e-47 8.56644e-47 8.53704e-47 8.49419e-47 8.43778e-47 8.36823e-47 8.28645e-47 8.19385e-47 8.09231e-47 7.9841e-47 7.8718e-47 7.75818e-47 7.64605e-47 7.53816e-47 7.43704e-47 7.3449e-47 7.26354e-47 7.19426e-47 7.13786e-47 7.09459e-47 7.06422e-47 7.04609e-47 7.03918e-47 7.04222e-47 7.05378e-47 7.07237e-47 7.09655e-47 7.12498e-47 7.15646e-47 7.18999e-47 7.22479e-47 7.26024e-47 7.29595e-47 7.33168e-47 7.36738e-47 7.40312e-47 7.43914e-47 7.47582e-47 7.51365e-47 7.55321e-47 7.59515e-47 7.64011e-47 7.68868e-47 7.74126e-47 7.79797e-47 7.85856e-47 7.92228e-47 7.9878e-47 8.05318e-47 8.11581e-47 8.17244e-47 8.21929e-47 8.25211e-47 8.26634e-47 8.25734e-47 8.22057e-47 8.15179e-47 8.04732e-47 7.90424e-47 7.7206e-47 7.49551e-47 7.22933e-47 6.9237e-47 6.58151e-47 6.20689e-47 5.80504e-47 5.38209e-47 4.9448e-47 4.50035e-47 4.05603e-47 3.61891e-47 3.19558e-47 2.79189e-47 2.41277e-47 2.06207e-47 1.74248e-47 1.45554e-47 1.20171e-47 9.80448e-48 7.90391e-48 6.29503e-48 4.95276e-48 3.84902e-48 2.95444e-48 2.23973e-48 1.67683e-48 1.23976e-48 9.05175e-49 6.52628e-49 4.64659e-49 3.26692e-49 2.26821e-49 1.55516e-49 1.05299e-49 7.04123e-50 4.65005e-50 3.033e-50 1.95394e-50 1.24336e-50 7.81546e-51 4.85297e-51 2.97702e-51 1.80429e-51 1.08046e-51 6.39325e-52 3.73828e-52 2.16019e-52 1.23372e-52 6.96424e-53 3.88597e-53 2.14351e-53 1.16893e-53 6.30257e-54 3.36007e-54 1.77135e-54 9.23399e-55 4.75876e-55 2.42129e-55 1.20922e-55 5.77447e-56 2.30653e-56 0 
0 1.57329e-73 5.30332e-73 1.6212e-72 4.87341e-72 1.45203e-71 4.29142e-71 1.25813e-70 3.65872e-70 1.05534e-69 3.01917e-69 8.56632e-69 2.4104e-68 6.72583e-68 1.86098e-67 5.10567e-67 1.38884e-66 3.74555e-66 1.00142e-65 2.65419e-65 6.97321e-65 1.81591e-64 4.68691e-64 1.19891e-63 3.03924e-63 7.63471e-63 1.90039e-62 4.68692e-62 1.14524e-61 2.7723e-61 6.648e-61 1.57913e-60 3.71525e-60 8.65714e-60 1.99776e-59 4.56526e-59 1.03302e-58 2.31439e-58 5.13358e-58 1.12727e-57 2.45031e-57 5.27194e-57 1.12264e-56 2.3659e-56 4.93404e-56 1.01818e-55 2.07886e-55 4.19925e-55 8.39123e-55 1.65863e-54 3.24271e-54 6.26993e-54 1.19888e-53 2.26679e-53 4.23771e-53 7.83241e-53 1.43109e-52 2.58468e-52 4.61401e-52 8.14032e-52 1.41925e-51 2.44507e-51 4.16199e-51 6.99924e-51 1.1628e-50 1.90819e-50 3.09291e-50 4.95116e-50 7.82714e-50 1.22187e-49 1.88336e-49 2.86616e-49 4.3062e-49 6.38681e-49 9.35067e-49 1.35128e-48 1.92736e-48 2.71317e-48 3.76937e-48 5.16796e-48 6.99221e-48 9.33568e-48 1.23e-47 1.59916e-47 2.05167e-47 2.59753e-47 3.24536e-47 4.00164e-47 4.86981e-47 5.84955e-47 6.93611e-47 8.11988e-47 9.38628e-47 1.0716e-46 1.20855e-46 1.34683e-46 1.48358e-46 1.61594e-46 1.74117e-46 1.85684e-46 1.96098e-46 2.05218e-46 2.12965e-46 2.19331e-46 2.24367e-46 2.28185e-46 2.3094e-46 2.32818e-46 2.34023e-46 2.34758e-46 2.35215e-46 2.35562e-46 2.35934e-46 2.36433e-46 2.37123e-46 2.38037e-46 2.39175e-46 2.40521e-46 2.42039e-46 2.43687e-46 2.45421e-46 2.472e-46 2.48985e-46 2.50746e-46 2.52459e-46 2.54101e-46 2.55655e-46 2.57102e-46 2.5842e-46 2.59583e-46 2.60563e-46 2.61323e-46 2.61827e-46 2.62035e-46 2.61909e-46 2.61415e-46 2.60528e-46 2.59232e-46 2.57525e-46 2.55419e-46 2.5294e-46 2.50133e-46 2.47054e-46 2.43772e-46 2.40366e-46 2.3692e-46 2.33519e-46 2.30247e-46 2.2718e-46 2.24387e-46 2.2192e-46 2.19821e-46 2.18113e-46 2.16804e-46 2.15886e-46 2.15339e-46 2.15132e-46 2.15226e-46 2.15578e-46 2.16142e-46 2.16875e-46 2.17736e-46 2.18688e-46 2.19703e-46 2.20754e-46 2.21825e-46 2.22904e-46 2.23983e-46 2.25061e-46 2.26141e-46 2.2723e-46 2.28339e-46 2.29484e-46 2.30682e-46 2.31954e-46 2.33321e-46 2.34799e-46 2.36403e-46 2.38136e-46 2.39991e-46 2.41948e-46 2.43966e-46 2.45987e-46 2.47933e-46 2.49705e-46 2.51189e-46 2.52255e-46 2.52764e-46 2.52574e-46 2.51545e-46 2.49546e-46 2.46462e-46 2.42202e-46 2.36701e-46 2.29931e-46 2.21898e-46 2.12647e-46 2.02265e-46 1.90874e-46 1.78632e-46 1.65724e-46 1.52357e-46 1.3875e-46 1.25128e-46 1.11709e-46 9.86984e-47 8.62773e-47 7.46001e-47 6.37877e-47 5.39258e-47 4.50646e-47 3.722e-47 3.03775e-47 2.44964e-47 1.95153e-47 1.53577e-47 1.19375e-47 9.16448e-48 6.94833e-48 5.20248e-48 3.84665e-48 2.80857e-48 2.02493e-48 1.44165e-48 1.01351e-48 7.036e-49 4.82346e-49 3.26541e-49 2.18312e-49 1.44143e-49 9.39945e-50 6.0538e-50 3.85115e-50 2.42e-50 1.5022e-50 9.21201e-51 5.58115e-51 3.34091e-51 1.97609e-51 1.155e-51 6.67151e-52 3.80858e-52 2.14897e-52 1.19857e-52 6.60835e-53 3.60209e-53 1.94125e-53 1.03444e-53 5.45073e-54 2.84007e-54 1.46293e-54 7.43991e-55 3.71384e-55 1.77276e-55 7.07887e-56 0 
0 4.68493e-73 1.57961e-72 4.83025e-72 1.45246e-71 4.32902e-71 1.27985e-70 3.75347e-70 1.09191e-69 3.15068e-69 9.01694e-69 2.55934e-68 7.20421e-68 2.011e-67 5.56646e-67 1.52779e-66 4.15759e-66 1.12173e-65 3.00037e-65 7.95568e-65 2.09108e-64 5.44787e-64 1.40676e-63 3.60016e-63 9.13073e-63 2.29479e-62 5.71488e-62 1.41016e-61 3.44744e-61 8.34959e-61 2.00328e-60 4.761e-60 1.12074e-59 2.61292e-59 6.03303e-59 1.37943e-58 3.12311e-58 7.0011e-58 1.55383e-57 3.41399e-57 7.42531e-57 1.59854e-56 3.40608e-56 7.18248e-56 1.49881e-55 3.09483e-55 6.32277e-55 1.27798e-54 2.55534e-54 5.05411e-54 9.88724e-54 1.91295e-53 3.66007e-53 6.92464e-53 1.29535e-52 2.39564e-52 4.37989e-52 7.91535e-52 1.41386e-51 2.49592e-51 4.35418e-51 7.50575e-51 1.27837e-50 2.15105e-50 3.57556e-50 5.8708e-50 9.52078e-50 1.52487e-49 2.41182e-49 3.76679e-49 5.80871e-49 8.84374e-49 1.32926e-48 1.97228e-48 2.88858e-48 4.17572e-48 5.95778e-48 8.38919e-48 1.16578e-47 1.59868e-47 2.16339e-47 2.88888e-47 3.80659e-47 4.94939e-47 6.35008e-47 8.03942e-47 1.00439e-46 1.23832e-46 1.50675e-46 1.80953e-46 2.14512e-46 2.51047e-46 2.901e-46 3.31062e-46 3.73201e-46 4.15685e-46 4.57629e-46 4.98141e-46 5.36374e-46 5.71579e-46 6.03148e-46 6.30654e-46 6.53866e-46 6.72766e-46 6.8753e-46 6.98514e-46 7.0621e-46 7.11208e-46 7.14147e-46 7.15666e-46 7.16364e-46 7.16763e-46 7.17288e-46 7.18252e-46 7.19853e-46 7.22189e-46 7.25265e-46 7.2902e-46 7.33345e-46 7.38108e-46 7.43168e-46 7.48392e-46 7.53664e-46 7.58886e-46 7.63978e-46 7.68875e-46 7.73517e-46 7.77846e-46 7.81796e-46 7.8529e-46 7.88236e-46 7.90528e-46 7.92052e-46 7.92689e-46 7.92323e-46 7.90853e-46 7.882e-46 7.84317e-46 7.79196e-46 7.72871e-46 7.65427e-46 7.56992e-46 7.47737e-46 7.37871e-46 7.27631e-46 7.17269e-46 7.07043e-46 6.97206e-46 6.87988e-46 6.79593e-46 6.72184e-46 6.6588e-46 6.60753e-46 6.56825e-46 6.54074e-46 6.52439e-46 6.51824e-46 6.52114e-46 6.53176e-46 6.54874e-46 6.57076e-46 6.59659e-46 6.62516e-46 6.65555e-46 6.68705e-46 6.71913e-46 6.75141e-46 6.78371e-46 6.81598e-46 6.84831e-46 6.88092e-46 6.91417e-46 6.94851e-46 6.98451e-46 7.02278e-46 7.06394e-46 7.10855e-46 7.15703e-46 7.20955e-46 7.26591e-46 7.32549e-46 7.38714e-46 7.44912e-46 7.5091e-46 7.56412e-46 7.61074e-46 7.64505e-46 7.66284e-46 7.6598e-46 7.63164e-46 7.57435e-46 7.4844e-46 7.3589e-46 7.19583e-46 6.99416e-46 6.75399e-46 6.47659e-46 6.16444e-46 5.82118e-46 5.45149e-46 5.06096e-46 4.65584e-46 4.24282e-46 3.82872e-46 3.42024e-46 3.02367e-46 2.64464e-46 2.28793e-46 1.9573e-46 1.65547e-46 1.38403e-46 1.14356e-46 9.33658e-47 7.5314e-47 6.00163e-47 4.72414e-47 3.67281e-47 2.82008e-47 2.1384e-47 1.60124e-47 1.184e-47 8.64489e-48 6.23272e-48 4.43714e-48 3.11916e-48 2.16514e-48 1.48408e-48 1.00453e-48 6.71451e-49 4.43234e-49 2.88958e-49 1.86056e-49 1.18325e-49 7.43304e-50 4.61247e-50 2.82753e-50 1.71244e-50 1.02468e-50 6.05842e-51 3.53961e-51 2.04367e-51 1.16616e-51 6.57707e-52 3.66662e-52 2.02065e-52 1.1009e-52 5.93013e-53 3.15847e-53 1.66346e-53 8.66304e-54 4.46013e-54 2.26713e-54 1.13116e-54 5.39715e-55 2.15448e-55 0 
0 1.3838e-72 4.66693e-72 1.42753e-71 4.29399e-71 1.28024e-70 3.78625e-70 1.1108e-69 3.23255e-69 9.33081e-69 2.67138e-68 7.58523e-68 2.13597e-67 5.96476e-67 1.65172e-66 4.53524e-66 1.2347e-65 3.33266e-65 8.918e-65 2.36572e-64 6.2209e-64 1.62147e-63 4.18896e-63 1.07255e-62 2.72152e-62 6.84327e-62 1.70508e-61 4.20948e-61 1.02963e-60 2.49506e-60 5.98949e-60 1.42424e-59 3.35449e-59 7.82515e-59 1.80779e-58 4.13582e-58 9.36919e-58 2.10153e-57 4.66692e-57 1.02601e-56 2.23289e-56 4.80997e-56 1.02552e-55 2.16388e-55 4.51833e-55 9.3356e-55 1.90849e-54 3.85996e-54 7.72301e-54 1.52849e-53 2.99208e-53 5.7927e-53 1.10904e-52 2.09959e-52 3.93011e-52 7.27306e-52 1.33056e-51 2.40611e-51 4.30054e-51 7.59657e-51 1.32605e-50 2.28722e-50 3.89787e-50 6.5626e-50 1.09148e-49 1.79313e-49 2.90953e-49 4.66243e-49 7.3781e-49 1.15288e-48 1.77867e-48 2.70923e-48 4.07384e-48 6.04695e-48 8.85963e-48 1.28119e-47 1.82854e-47 2.57551e-47 3.57992e-47 4.91035e-47 6.6461e-47 8.87617e-47 1.16971e-46 1.52099e-46 1.95149e-46 2.47062e-46 3.08645e-46 3.8049e-46 4.62899e-46 5.55806e-46 6.58717e-46 7.70673e-46 8.90236e-46 1.01552e-45 1.14423e-45 1.27381e-45 1.40151e-45 1.52459e-45 1.64043e-45 1.74675e-45 1.84169e-45 1.92396e-45 1.99289e-45 2.04846e-45 2.09125e-45 2.1224e-45 2.14346e-45 2.15628e-45 2.16285e-45 2.16516e-45 2.16507e-45 2.16421e-45 2.16387e-45 2.16503e-45 2.1683e-45 2.17396e-45 2.18202e-45 2.19229e-45 2.20444e-45 2.21803e-45 2.23263e-45 2.24783e-45 2.26325e-45 2.27859e-45 2.2936e-45 2.30807e-45 2.32182e-45 2.33467e-45 2.34641e-45 2.35682e-45 2.3656e-45 2.37246e-45 2.37703e-45 2.37897e-45 2.37792e-45 2.37358e-45 2.36571e-45 2.35416e-45 2.33892e-45 2.32009e-45 2.29791e-45 2.27277e-45 2.24517e-45 2.21575e-45 2.18521e-45 2.15431e-45 2.12381e-45 2.09447e-45 2.06699e-45 2.04196e-45 2.01988e-45 2.0011e-45 1.98584e-45 1.97415e-45 1.96598e-45 1.96113e-45 1.95932e-45 1.9602e-45 1.96338e-45 1.96845e-45 1.97501e-45 1.9827e-45 1.9912e-45 2.00023e-45 2.00959e-45 2.01912e-45 2.0287e-45 2.03829e-45 2.04787e-45 2.05747e-45 2.06716e-45 2.07705e-45 2.08727e-45 2.09799e-45 2.10941e-45 2.12171e-45 2.13507e-45 2.14962e-45 2.16541e-45 2.1824e-45 2.2004e-45 2.2191e-45 2.23797e-45 2.25632e-45 2.27328e-45 2.28782e-45 2.29876e-45 2.30486e-45 2.3048e-45 2.29729e-45 2.2811e-45 2.25516e-45 2.21856e-45 2.17067e-45 2.11115e-45 2.03997e-45 1.9575e-45 1.86443e-45 1.76184e-45 1.6511e-45 1.53389e-45 1.41208e-45 1.28768e-45 1.16277e-45 1.03938e-45 9.19433e-46 8.04648e-46 6.96499e-46 5.96157e-46 5.04466e-46 4.21939e-46 3.48768e-46 2.84856e-46 2.29855e-46 1.83219e-46 1.44255e-46 1.12174e-46 8.61445e-47 6.53294e-47 4.89232e-47 3.61768e-47 2.64147e-47 1.90439e-47 1.35568e-47 9.52916e-48 6.61381e-48 4.53271e-48 3.06751e-48 2.04999e-48 1.35291e-48 8.81781e-49 5.67606e-49 3.60871e-49 2.26621e-49 1.40578e-49 8.61459e-50 5.2153e-50 3.11947e-50 1.84362e-50 1.07667e-50 6.21368e-51 3.54406e-51 1.9979e-51 1.11328e-51 6.13227e-52 3.33937e-52 1.79791e-52 9.5711e-53 5.03822e-53 2.6225e-53 1.34949e-53 6.85612e-54 3.4191e-54 1.63065e-54 6.50727e-55 0 
0 4.05447e-72 1.36775e-71 4.185e-71 1.25926e-70 3.75573e-70 1.11113e-69 3.26095e-69 9.49322e-69 2.74126e-68 7.85111e-68 2.23014e-67 6.2825e-67 1.75511e-66 4.86213e-66 1.33559e-65 3.63764e-65 9.82293e-65 2.62973e-64 6.97919e-64 1.8361e-63 4.78803e-63 1.23755e-62 3.17018e-62 8.04814e-62 2.02473e-61 5.04747e-61 1.24676e-60 3.05119e-60 7.39777e-60 1.77684e-59 4.22749e-59 9.9626e-59 2.32534e-58 5.37521e-58 1.23045e-57 2.78909e-57 6.25977e-57 1.39097e-56 3.0599e-56 6.66337e-56 1.43629e-55 3.0642e-55 6.46972e-55 1.3518e-54 2.79484e-54 5.71725e-54 1.15709e-53 2.31662e-53 4.58794e-53 8.98702e-53 1.74105e-52 3.33554e-52 6.31889e-52 1.18358e-51 2.19177e-51 4.01231e-51 7.26036e-51 1.29851e-50 2.29517e-50 4.00894e-50 6.91908e-50 1.17986e-49 1.98765e-49 3.30777e-49 5.43724e-49 8.82736e-49 1.41532e-48 2.24086e-48 3.50326e-48 5.40746e-48 8.24032e-48 1.23963e-47 1.84078e-47 2.69804e-47 3.90302e-47 5.57229e-47 7.85095e-47 1.09155e-46 1.49756e-46 2.02732e-46 2.70799e-46 3.56904e-46 4.6412e-46 5.95504e-46 7.5391e-46 9.41774e-46 1.16087e-45 1.41208e-45 1.69515e-45 2.0085e-45 2.34913e-45 2.71257e-45 3.09299e-45 3.48333e-45 3.87568e-45 4.26163e-45 4.63275e-45 4.98111e-45 5.2997e-45 5.58295e-45 5.82699e-45 6.02988e-45 6.19165e-45 6.31423e-45 6.40119e-45 6.45741e-45 6.48865e-45 6.50109e-45 6.50088e-45 6.49374e-45 6.48465e-45 6.47764e-45 6.47563e-45 6.4805e-45 6.49311e-45 6.51347e-45 6.54095e-45 6.57448e-45 6.61276e-45 6.65443e-45 6.69817e-45 6.74285e-45 6.78751e-45 6.83136e-45 6.87376e-45 6.91415e-45 6.95196e-45 6.98658e-45 7.01731e-45 7.04331e-45 7.06364e-45 7.07725e-45 7.08309e-45 7.08011e-45 7.0674e-45 7.04425e-45 7.01022e-45 6.96523e-45 6.9096e-45 6.84404e-45 6.7697e-45 6.68809e-45 6.60107e-45 6.51072e-45 6.41928e-45 6.32906e-45 6.24227e-45 6.16098e-45 6.08697e-45 6.02169e-45 5.9662e-45 5.92111e-45 5.88662e-45 5.86253e-45 5.84826e-45 5.84299e-45 5.84566e-45 5.8551e-45 5.87011e-45 5.88951e-45 5.91222e-45 5.93729e-45 5.96393e-45 5.99151e-45 6.01957e-45 6.0478e-45 6.07603e-45 6.10425e-45 6.13252e-45 6.16108e-45 6.19022e-45 6.22039e-45 6.25209e-45 6.28589e-45 6.32237e-45 6.36205e-45 6.40536e-45 6.45248e-45 6.5033e-45 6.55733e-45 6.61359e-45 6.67061e-45 6.72635e-45 6.77825e-45 6.82324e-45 6.85788e-45 6.87839e-45 6.88088e-45 6.86146e-45 6.81643e-45 6.74249e-45 6.63689e-45 6.49761e-45 6.3235e-45 6.11443e-45 5.87132e-45 5.59616e-45 5.29204e-45 4.96303e-45 4.61404e-45 4.25066e-45 3.87893e-45 3.50504e-45 3.13516e-45 2.7751e-45 2.43011e-45 2.10468e-45 1.80243e-45 1.52596e-45 1.2769e-45 1.05591e-45 8.6273e-46 6.96381e-46 5.55251e-46 4.37277e-46 3.40102e-46 2.61226e-46 1.98131e-46 1.48388e-46 1.09733e-46 8.01229e-47 5.7764e-47 4.11182e-47 2.88996e-47 2.00556e-47 1.37428e-47 9.29876e-48 6.21296e-48 4.09934e-48 2.6711e-48 1.71891e-48 1.0925e-48 6.85846e-49 4.25297e-49 2.60524e-49 1.5766e-49 9.42645e-50 5.56873e-50 3.25071e-50 1.87521e-50 1.06906e-50 6.02379e-51 3.35497e-51 1.84711e-51 1.00536e-51 5.41006e-52 2.87855e-52 1.51448e-52 7.87907e-53 4.05231e-53 2.05771e-53 1.02565e-53 4.88939e-54 1.95051e-54 0 
0 1.17833e-71 3.97607e-71 1.21698e-70 3.66313e-70 1.0929e-69 3.2345e-69 9.49609e-69 2.76551e-68 7.98872e-68 2.2889e-67 6.50431e-67 1.83306e-66 5.12305e-66 1.41982e-65 3.90182e-65 1.06317e-64 2.87223e-64 7.69286e-64 2.0426e-63 5.37625e-63 1.40265e-62 3.62718e-62 9.29627e-62 2.36125e-61 5.94345e-61 1.48243e-60 3.66366e-60 8.97093e-60 2.17625e-59 5.23e-59 1.24504e-58 2.93579e-58 6.85636e-58 1.58584e-57 3.63238e-57 8.23863e-57 1.8502e-56 4.11386e-56 9.05552e-56 1.97323e-55 4.25603e-55 9.08581e-55 1.91963e-54 4.01355e-54 8.30355e-54 1.69975e-53 3.44235e-53 6.89665e-53 1.36677e-52 2.67909e-52 5.19372e-52 9.95699e-52 1.88755e-51 3.53791e-51 6.55598e-51 1.20096e-50 2.17461e-50 3.89184e-50 6.88349e-50 1.2031e-49 2.07777e-49 3.5453e-49 5.97625e-49 9.95142e-49 1.63675e-48 2.65879e-48 4.26529e-48 6.75679e-48 1.05687e-47 1.63215e-47 2.48837e-47 3.74504e-47 5.56354e-47 8.15773e-47 1.18054e-46 1.68601e-46 2.37618e-46 3.30461e-46 4.53483e-46 6.14024e-46 8.20315e-46 1.08128e-45 1.40621e-45 1.80434e-45 2.28428e-45 2.85332e-45 3.51676e-45 4.27711e-45 5.13342e-45 6.08074e-45 7.10972e-45 8.20661e-45 9.35342e-45 1.05286e-44 1.1708e-44 1.28658e-44 1.39766e-44 1.50162e-44 1.59635e-44 1.68018e-44 1.75196e-44 1.81114e-44 1.85775e-44 1.89242e-44 1.91629e-44 1.93086e-44 1.93791e-44 1.93934e-44 1.93705e-44 1.93278e-44 1.92806e-44 1.92411e-44 1.92181e-44 1.92174e-44 1.92414e-44 1.92902e-44 1.93617e-44 1.94526e-44 1.95589e-44 1.96764e-44 1.9801e-44 1.99291e-44 2.00579e-44 2.01849e-44 2.03081e-44 2.04257e-44 2.0536e-44 2.06372e-44 2.07273e-44 2.08036e-44 2.08634e-44 2.09036e-44 2.0921e-44 2.09127e-44 2.08758e-44 2.08082e-44 2.07087e-44 2.0577e-44 2.0414e-44 2.02218e-44 2.00038e-44 1.97644e-44 1.9509e-44 1.92439e-44 1.89756e-44 1.87108e-44 1.84561e-44 1.82176e-44 1.80005e-44 1.78091e-44 1.76465e-44 1.75144e-44 1.74134e-44 1.7343e-44 1.73014e-44 1.72861e-44 1.72941e-44 1.7322e-44 1.7366e-44 1.74229e-44 1.74894e-44 1.75628e-44 1.76407e-44 1.77213e-44 1.78033e-44 1.78857e-44 1.79682e-44 1.80506e-44 1.81332e-44 1.82166e-44 1.83019e-44 1.83902e-44 1.84832e-44 1.85824e-44 1.86897e-44 1.88067e-44 1.89346e-44 1.90742e-44 1.9225e-44 1.93859e-44 1.9554e-44 1.9725e-44 1.98931e-44 2.00507e-44 2.0189e-44 2.02976e-44 2.03655e-44 2.03812e-44 2.0333e-44 2.02098e-44 2.00017e-44 1.97002e-44 1.92991e-44 1.87946e-44 1.8186e-44 1.74756e-44 1.66689e-44 1.57749e-44 1.48053e-44 1.37745e-44 1.26991e-44 1.15969e-44 1.04865e-44 9.38628e-45 8.31371e-45 7.28468e-45 6.31284e-45 5.4092e-45 4.58183e-45 3.8358e-45 3.17326e-45 2.59371e-45 2.09431e-45 1.67036e-45 1.31579e-45 1.02361e-45 7.86346e-46 5.96493e-46 4.46774e-46 3.30406e-46 2.41254e-46 1.73926e-46 1.23798e-46 8.70026e-47 6.037e-47 4.13612e-47 2.79808e-47 1.86913e-47 1.23296e-47 8.03172e-48 5.16704e-48 3.28302e-48 2.0603e-48 1.27714e-48 7.8204e-49 4.73076e-49 2.82733e-49 1.66954e-49 9.74147e-50 5.61688e-50 3.20068e-50 1.8026e-50 1.00347e-50 5.52193e-51 3.00397e-51 1.61567e-51 8.59203e-52 4.5181e-52 2.34928e-52 1.20761e-52 6.12885e-53 3.05331e-53 1.45487e-53 5.8019e-54 0 
0 3.39665e-71 1.14645e-70 3.51017e-70 1.05693e-69 3.1545e-69 9.33931e-69 2.74292e-68 7.99115e-68 2.3093e-67 6.61914e-67 1.88171e-66 5.30526e-66 1.48335e-65 4.11277e-65 1.13073e-64 3.08241e-64 8.33115e-64 2.23242e-63 5.93031e-63 1.56165e-62 4.07633e-62 1.05465e-61 2.70438e-61 6.87268e-61 1.73083e-60 4.31939e-60 1.06808e-59 2.61678e-59 6.35163e-59 1.52731e-58 3.63799e-58 8.58342e-58 2.00581e-57 4.64218e-57 1.06395e-56 2.41466e-56 5.42619e-56 1.20727e-55 2.65919e-55 5.79825e-55 1.25145e-54 2.67338e-54 5.65204e-54 1.18253e-53 2.44818e-53 5.0149e-53 1.01633e-52 2.03759e-52 4.04087e-52 7.92629e-52 1.53767e-51 2.94996e-51 5.59612e-51 1.04964e-50 1.94639e-50 3.56795e-50 6.46499e-50 1.1578e-49 2.04918e-49 3.58395e-49 6.19356e-49 1.05748e-48 1.7837e-48 2.97199e-48 4.8911e-48 7.9499e-48 1.27607e-47 2.02258e-47 3.16532e-47 4.89074e-47 7.46004e-47 1.12327e-46 1.66942e-46 2.44884e-46 3.54516e-46 5.06482e-46 7.14037e-46 9.93304e-46 1.36342e-45 1.84647e-45 2.46722e-45 3.25251e-45 4.23026e-45 5.42815e-45 6.87192e-45 8.58332e-45 1.05779e-44 1.28629e-44 1.54349e-44 1.82783e-44 2.13644e-44 2.4651e-44 2.80833e-44 3.15957e-44 3.51147e-44 3.85627e-44 4.18624e-44 4.49413e-44 4.77362e-44 5.01971e-44 5.22904e-44 5.40002e-44 5.53291e-44 5.62972e-44 5.69393e-44 5.73024e-44 5.7441e-44 5.74133e-44 5.72767e-44 5.70845e-44 5.68828e-44 5.67085e-44 5.65884e-44 5.65394e-44 5.65689e-44 5.66767e-44 5.68565e-44 5.7098e-44 5.73887e-44 5.77157e-44 5.80667e-44 5.84307e-44 5.87985e-44 5.91628e-44 5.95174e-44 5.98569e-44 6.01762e-44 6.04697e-44 6.07312e-44 6.09534e-44 6.11278e-44 6.12456e-44 6.12974e-44 6.12742e-44 6.1168e-44 6.09725e-44 6.06839e-44 6.03015e-44 5.98278e-44 5.9269e-44 5.86348e-44 5.79382e-44 5.7195e-44 5.64233e-44 5.56423e-44 5.48716e-44 5.41304e-44 5.34364e-44 5.28048e-44 5.22481e-44 5.17752e-44 5.13914e-44 5.10984e-44 5.08941e-44 5.07738e-44 5.07301e-44 5.07539e-44 5.08352e-44 5.09636e-44 5.11291e-44 5.13223e-44 5.15352e-44 5.17611e-44 5.19948e-44 5.22323e-44 5.24711e-44 5.27099e-44 5.29485e-44 5.31878e-44 5.34297e-44 5.36771e-44 5.39336e-44 5.42039e-44 5.4493e-44 5.48062e-44 5.51483e-44 5.55233e-44 5.59332e-44 5.63777e-44 5.68531e-44 5.73514e-44 5.78607e-44 5.83638e-44 5.8839e-44 5.92605e-44 5.95983e-44 5.982e-44 5.98914e-44 5.97783e-44 5.94478e-44 5.88697e-44 5.80187e-44 5.68753e-44 5.54275e-44 5.36718e-44 5.1614e-44 4.92694e-44 4.66632e-44 4.38292e-44 4.08095e-44 3.76522e-44 3.44101e-44 3.11379e-44 2.78905e-44 2.472e-44 2.16741e-44 1.87938e-44 1.61126e-44 1.36552e-44 1.14373e-44 9.46588e-45 7.74007e-45 6.25193e-45 4.98788e-45 3.9301e-45 3.05803e-45 2.34962e-45 1.78256e-45 1.33526e-45 9.87522e-46 7.21071e-46 5.19824e-46 3.69982e-46 2.59989e-46 1.80379e-46 1.23563e-46 8.3574e-47 5.58153e-47 3.6809e-47 2.39714e-47 1.54168e-47 9.79232e-48 6.14314e-48 3.80661e-48 2.33002e-48 1.40891e-48 8.41672e-49 4.96788e-49 2.89735e-49 1.66981e-49 9.5105e-50 5.35361e-50 2.97873e-50 1.6383e-50 8.90779e-51 4.78846e-51 2.54511e-51 1.33761e-51 6.95138e-52 3.5713e-52 1.81151e-52 9.01994e-53 4.29588e-53 1.71257e-53 0 