# vtk DataFile Version 3.0
Gray-Scott Simulation Output
ASCII
DATASET STRUCTURED_POINTS
DIMENSIONS 256 256 1
SPACING 1.0 1.0 1.0
ORIGIN 0 0 0
POINT_DATA 65536
SCALARS u double
LOOKUP_TABLE default
0 0 0 0 0 0 0 0 0 0 0 0 0 0 0 0 0 0 0 0 0 0 0 0 0 0 0 0 0 0 0 0 0 0 0 0 0 0 0 0 0 0 0 0 0 0 0 0 0 0 0 0 0 0 0 0 0 0 0 0 0 0 0 0 0 0 0 0 0 0 0 0 0 0 0 0 0 0 0 0 0 0 0 0 0 0 0 0 0 0 0 0 0 0 0 0 0 0 0 0 0 0 0 0 0 0 0 0 0 0 0 0 0 0 0 0 0 0 0 0 0 0 0 0 0 0 0 0 0 0 0 0 0 0 0 0 0 0 0 0 0 0 0 0 0 0 0 0 0 0 0 0 0 0 0 0 0 0 0 0 0 0 0 0 0 0 0 0 0 0 0 0 0 0 0 0 0 0 0 0 0 0 0 0 0 0 0 0 0 0 0 0 0 0 0 0 0 0 0 0 0 0 0 0 0 0 0 0 0 0 0 0 0 0 0 0 0 0 0 0 0 0 0 0 0 0 0 0 0 0 0 0 0 0 0 0 0 0 0 0 0 0 0 0 0 0 0 0 0 0 0 0 0 0 0 0 
0 2.33816e-78 8.58004e-78 2.89629e-77 9.63633e-77 3.17766e-76 1.03899e-75 3.36831e-75 1.08265e-74 3.44995e-74 1.08983e-73 3.41272e-73 1.05928e-72 3.2588e-72 9.93618e-72 3.00237e-71 8.99009e-71 2.66741e-70 7.84175e-70 2.28403e-69 6.59066e-69 1.88391e-68 5.33419e-68 1.49596e-67 4.15512e-67 1.14295e-66 3.11329e-66 8.39701e-66 2.24239e-65 5.92852e-65 1.55165e-64 4.01995e-64 1.03084e-63 2.61619e-63 6.57081e-63 1.63307e-62 4.01596e-62 9.77093e-62 2.35183e-61 5.59968e-61 1.31877e-60 3.07171e-60 7.07558e-60 1.61166e-59 3.62972e-59 8.08207e-59 1.77901e-58 3.87081e-58 8.32431e-58 1.7692e-57 3.71575e-57 7.71104e-57 1.581e-56 3.20232e-56 6.40712e-56 1.26615e-55 2.47107e-55 4.76237e-55 9.06257e-55 1.70266e-54 3.15796e-54 5.78156e-54 1.04472e-53 1.86305e-53 3.27852e-53 5.69268e-53 9.75212e-53 1.6481e-52 2.74743e-52 4.51742e-52 7.32545e-52 1.17144e-51 1.8472e-51 2.87195e-51 4.40227e-51 6.65244e-51 9.90971e-51 1.45509e-50 2.10592e-50 3.00397e-50 4.22313e-50 5.85117e-50 7.98935e-50 1.07506e-49 1.42565e-49 1.86316e-49 2.39972e-49 3.04624e-49 3.81144e-49 4.70083e-49 5.71569e-49 6.85225e-49 8.10111e-49 9.44701e-49 1.08691e-48 1.23416e-48 1.38352e-48 1.53184e-48 1.67598e-48 1.813e-48 1.94033e-48 2.05598e-48 2.15865e-48 2.24779e-48 2.32359e-48 2.38696e-48 2.43934e-48 2.4826e-48 2.51882e-48 2.55012e-48 2.57846e-48 2.60551e-48 2.63258e-48 2.66051e-48 2.68976e-48 2.72038e-48 2.75214e-48 2.78459e-48 2.8172e-48 2.8494e-48 2.88073e-48 2.9108e-48 2.93938e-48 2.96636e-48 2.99172e-48 3.0155e-48 3.03772e-48 3.05836e-48 3.07731e-48 3.09432e-48 3.10903e-48 3.12093e-48 3.12944e-48 3.13391e-48 3.13367e-48 3.12814e-48 3.11683e-48 3.09941e-48 3.07576e-48 3.04601e-48 3.01054e-48 2.96998e-48 2.92519e-48 2.87724e-48 2.82736e-48 2.77685e-48 2.72707e-48 2.67933e-48 2.63484e-48 2.59465e-48 2.55961e-48 2.5303e-48 2.50706e-48 2.48996e-48 2.47881e-48 2.47323e-48 2.47265e-48 2.47639e-48 2.48372e-48 2.4939e-48 2.50621e-48 2.52004e-48 2.53484e-48 2.55019e-48 2.56576e-48 2.58133e-48 2.59672e-48 2.61186e-48 2.62671e-48 2.64129e-48 2.65567e-48 2.66997e-48 2.6844e-48 2.6992e-48 2.71467e-48 2.73115e-48 2.74897e-48 2.7684e-48 2.78962e-48 2.8126e-48 2.83711e-48 2.86261e-48 2.88828e-48 2.91292e-48 2.93508e-48 2.95301e-48 2.96477e-48 2.96831e-48 2.9616e-48 2.94271e-48 2.90993e-48 2.8619e-48 2.79768e-48 2.71682e-48 2.61942e-48 2.50613e-48 2.37819e-48 2.23733e-48 2.08576e-48 1.92605e-48 1.76102e-48 1.59365e-48 1.42691e-48 1.26365e-48 1.10648e-48 9.57666e-49 8.19066e-49 6.9206e-49 5.77541e-49 4.75928e-49 3.87197e-49 3.10939e-49 2.46436e-49 1.92732e-49 1.48722e-49 1.13218e-49 8.50242e-50 6.29828e-50 4.6018e-50 3.31621e-50 2.35695e-50 1.65213e-50 1.14215e-50 7.78723e-51 5.2364e-51 3.47281e-51 2.27164e-51 1.46564e-51 9.32734e-52 5.8554e-52 3.62616e-52 2.21541e-52 1.33538e-52 7.94206e-53 4.66087e-53 2.69923e-53 1.54272e-53 8.70245e-54 4.84553e-54 2.66331e-54 1.44518e-54 7.74249e-55 4.09576e-55 2.13956e-55 1.1038e-55 5.62429e-56 2.83075e-56 1.40744e-56 6.91333e-57 3.35507e-57 1.60856e-57 7.61315e-58 3.54228e-58 1.5859e-58 6.03618e-59 0 
0 8.58221e-78 3.14977e-77 1.06342e-76 3.5388e-76 1.16717e-75 3.81698e-75 1.23768e-74 3.97898e-74 1.2682e-73 4.00706e-73 1.25505e-72 3.89644e-72 1.19899e-71 3.65662e-71 1.10517e-70 3.31006e-70 9.82362e-70 2.88872e-69 8.41608e-69 2.42914e-68 6.94552e-68 1.96714e-67 5.51836e-67 1.53321e-66 4.21866e-66 1.14947e-65 3.10126e-65 8.28444e-65 2.19098e-64 5.73625e-64 1.48662e-63 3.81345e-63 9.68158e-63 2.43248e-62 6.0477e-62 1.48776e-61 3.6211e-61 8.71914e-61 2.0768e-60 4.89291e-60 1.14012e-59 2.62726e-59 5.9867e-59 1.34885e-58 3.00462e-58 6.61646e-58 1.44022e-57 3.09855e-57 6.58828e-57 1.38429e-56 2.87395e-56 5.89503e-56 1.19455e-55 2.39107e-55 4.72718e-55 9.22979e-55 1.77958e-54 3.38792e-54 6.36791e-54 1.18158e-53 2.16414e-53 3.9122e-53 6.97956e-53 1.22874e-52 2.1344e-52 3.65789e-52 6.18419e-52 1.03132e-51 1.69635e-51 2.7518e-51 4.40204e-51 6.9437e-51 1.07992e-50 1.65586e-50 2.50295e-50 3.72949e-50 5.47755e-50 7.92936e-50 1.13131e-49 1.59075e-49 2.20435e-49 3.0103e-49 4.05117e-49 5.37272e-49 7.02193e-49 9.04438e-49 1.1481e-48 1.43645e-48 1.77153e-48 2.15377e-48 2.58171e-48 3.05173e-48 3.55803e-48 4.09267e-48 4.64588e-48 5.20653e-48 5.76277e-48 6.30269e-48 6.81519e-48 7.29065e-48 7.72162e-48 8.10324e-48 8.43352e-48 8.71333e-48 8.94611e-48 9.13747e-48 9.29452e-48 9.4252e-48 9.53751e-48 9.63891e-48 9.73575e-48 9.83292e-48 9.9337e-48 1.00397e-47 1.01512e-47 1.02673e-47 1.03863e-47 1.05061e-47 1.06247e-47 1.07401e-47 1.08511e-47 1.09567e-47 1.10564e-47 1.11502e-47 1.12381e-47 1.13204e-47 1.13968e-47 1.14671e-47 1.15302e-47 1.15848e-47 1.16291e-47 1.16608e-47 1.16775e-47 1.16768e-47 1.16565e-47 1.16147e-47 1.15502e-47 1.14626e-47 1.13524e-47 1.12209e-47 1.10704e-47 1.09043e-47 1.07264e-47 1.05413e-47 1.03539e-47 1.01693e-47 9.99215e-48 9.82713e-48 9.67809e-48 9.54815e-48 9.43952e-48 9.35342e-48 9.2901e-48 9.24889e-48 9.22831e-48 9.22628e-48 9.24026e-48 9.26751e-48 9.30528e-48 9.35095e-48 9.40219e-48 9.45701e-48 9.51384e-48 9.57147e-48 9.62905e-48 9.68599e-48 9.74199e-48 9.79691e-48 9.85084e-48 9.90402e-48 9.95696e-48 1.00103e-47 1.00651e-47 1.01224e-47 1.01835e-47 1.02496e-47 1.03218e-47 1.04006e-47 1.04861e-47 1.05774e-47 1.06726e-47 1.07685e-47 1.08608e-47 1.09441e-47 1.10118e-47 1.10568e-47 1.10715e-47 1.10482e-47 1.09798e-47 1.08598e-47 1.06831e-47 1.04461e-47 1.01471e-47 9.78635e-48 9.36619e-48 8.8911e-48 8.3675e-48 7.80352e-48 7.20869e-48 6.59355e-48 5.96914e-48 5.34659e-48 4.73659e-48 4.14893e-48 3.59216e-48 3.07327e-48 2.59752e-48 2.16831e-48 1.78728e-48 1.45441e-48 1.16822e-48 9.26047e-49 7.24357e-49 5.59023e-49 4.25616e-49 3.19653e-49 2.368e-49 1.73021e-49 1.24684e-49 8.86155e-50 6.2113e-50 4.29366e-50 2.92716e-50 1.96809e-50 1.30507e-50 8.53537e-51 5.50593e-51 3.5033e-51 2.19879e-51 1.36136e-51 8.31523e-52 5.01089e-52 2.97937e-52 1.74797e-52 1.012e-52 5.78223e-53 3.26073e-53 1.81499e-53 9.9727e-54 5.40963e-54 2.89719e-54 1.53208e-54 8.00053e-55 4.126e-55 2.10162e-55 1.05738e-55 5.25535e-56 2.58049e-56 1.25187e-56 5.99981e-57 2.83863e-57 1.32031e-57 5.90923e-58 2.2486e-58 0 
0 2.89787e-77 1.06374e-76 3.59212e-76 1.19562e-75 3.94428e-75 1.29019e-74 4.18449e-74 1.34558e-73 4.28976e-73 1.35575e-72 4.24746e-72 1.31902e-71 4.05991e-71 1.23851e-70 3.74432e-70 1.12177e-69 3.3302e-69 9.79572e-69 2.85479e-68 8.24244e-68 2.35748e-67 6.67915e-67 1.87432e-66 5.20937e-66 1.43388e-65 3.90833e-65 1.05485e-64 2.81889e-64 7.45791e-64 1.95333e-63 5.06429e-63 1.2996e-62 3.30078e-62 8.2966e-62 2.0636e-61 5.07871e-61 1.23666e-60 2.97903e-60 7.09891e-60 1.67325e-59 3.9007e-59 8.99288e-59 2.05017e-58 4.62139e-58 1.02993e-57 2.26911e-57 4.94166e-57 1.0637e-56 2.26281e-56 4.75686e-56 9.88081e-56 2.02778e-55 4.11113e-55 8.23322e-55 1.62856e-54 3.18138e-54 6.1371e-54 1.16896e-53 2.19829e-53 4.08103e-53 7.47844e-53 1.35258e-52 2.41426e-52 4.25233e-52 7.39009e-52 1.26709e-51 2.14319e-51 3.57573e-51 5.88409e-51 9.54912e-51 1.52819e-50 2.4115e-50 3.7519e-50 5.75491e-50 8.70192e-50 1.29703e-49 1.90552e-49 2.75921e-49 3.93764e-49 5.53797e-49 7.6756e-49 1.04836e-48 1.41104e-48 1.87153e-48 2.44617e-48 3.15082e-48 3.99966e-48 5.00399e-48 6.17077e-48 7.50136e-48 8.99041e-48 1.06251e-47 1.23849e-47 1.42419e-47 1.61619e-47 1.81057e-47 2.0032e-47 2.18991e-47 2.36684e-47 2.53065e-47 2.67876e-47 2.80951e-47 2.92224e-47 3.01729e-47 3.09591e-47 3.16008e-47 3.21234e-47 3.25546e-47 3.29227e-47 3.32538e-47 3.35703e-47 3.38891e-47 3.42218e-47 3.45741e-47 3.49467e-47 3.53364e-47 3.57373e-47 3.61423e-47 3.65439e-47 3.69357e-47 3.73126e-47 3.76716e-47 3.80109e-47 3.83303e-47 3.86301e-47 3.89106e-47 3.91716e-47 3.94115e-47 3.96273e-47 3.98143e-47 3.9966e-47 4.00749e-47 4.01328e-47 4.01311e-47 4.00624e-47 3.99202e-47 3.97004e-47 3.94015e-47 3.9025e-47 3.85756e-47 3.80615e-47 3.74935e-47 3.68854e-47 3.62525e-47 3.56117e-47 3.49802e-47 3.43746e-47 3.38104e-47 3.3301e-47 3.2857e-47 3.2486e-47 3.2192e-47 3.19761e-47 3.18357e-47 3.17659e-47 3.17594e-47 3.18076e-47 3.1901e-47 3.20303e-47 3.21864e-47 3.23613e-47 3.25484e-47 3.27422e-47 3.29387e-47 3.31349e-47 3.3329e-47 3.35197e-47 3.37069e-47 3.38906e-47 3.40719e-47 3.42523e-47 3.44343e-47 3.46212e-47 3.48168e-47 3.50254e-47 3.52514e-47 3.54984e-47 3.57685e-47 3.6062e-47 3.63757e-47 3.67033e-47 3.70341e-47 3.73534e-47 3.76425e-47 3.78792e-47 3.80388e-47 3.80953e-47 3.80224e-47 3.77952e-47 3.73916e-47 3.67938e-47 3.5989e-47 3.49708e-47 3.374e-47 3.23041e-47 3.06782e-47 2.88839e-47 2.69489e-47 2.49059e-47 2.27908e-47 2.06418e-47 1.84972e-47 1.63939e-47 1.4366e-47 1.24432e-47 1.06499e-47 9.00448e-48 7.51913e-48 6.19975e-48 5.04649e-48 4.05448e-48 3.21469e-48 2.51502e-48 1.94127e-48 1.47818e-48 1.11027e-48 8.2254e-49 6.01017e-49 4.33112e-49 3.07811e-49 2.1574e-49 1.49121e-49 1.0165e-49 6.83351e-50 4.53064e-50 2.96256e-50 1.91066e-50 1.21543e-50 7.62649e-51 4.7206e-51 2.88252e-51 1.73652e-51 1.03217e-51 6.05364e-52 3.50357e-52 2.0011e-52 1.12805e-52 6.27659e-53 3.44742e-53 1.86929e-53 1.00072e-53 5.28978e-54 2.76119e-54 1.42339e-54 7.24713e-55 3.64468e-55 1.81069e-55 8.8871e-56 4.30954e-56 2.06454e-56 9.76359e-57 4.53938e-57 2.03091e-57 7.72588e-58 0 
0 9.64454e-77 3.54092e-76 1.19599e-75 3.98169e-75 1.31384e-74 4.29864e-74 1.39453e-73 4.48543e-73 1.43034e-72 4.52169e-72 1.41699e-71 4.40158e-71 1.35518e-70 4.13531e-70 1.25057e-69 3.74778e-69 1.11295e-68 3.27475e-68 9.54681e-68 2.7573e-67 7.88903e-67 2.23588e-66 6.2766e-66 1.74511e-65 4.80517e-65 1.31024e-64 3.53768e-64 9.45749e-64 2.50316e-63 6.5588e-63 1.70117e-62 4.36739e-62 1.10972e-61 2.79053e-61 6.9439e-61 1.70973e-60 4.16507e-60 1.00381e-59 2.39315e-59 5.64348e-59 1.31625e-58 3.03605e-58 6.9249e-58 1.56176e-57 3.48234e-57 7.67611e-57 1.67256e-56 3.60209e-56 7.66677e-56 1.61256e-55 3.35134e-55 6.88143e-55 1.39589e-54 2.79701e-54 5.53556e-54 1.08195e-53 2.08829e-53 3.9798e-53 7.48821e-53 1.39089e-52 2.55015e-52 4.61472e-52 8.2412e-52 1.4523e-51 2.52521e-51 4.33183e-51 7.33052e-51 1.22361e-50 2.01446e-50 3.27067e-50 5.23649e-50 8.26663e-50 1.28667e-49 1.97432e-49 2.98641e-49 4.45276e-49 6.54379e-49 9.47815e-49 1.35297e-48 1.90328e-48 2.63848e-48 3.60434e-48 4.85193e-48 6.43601e-48 8.41275e-48 1.08365e-47 1.37559e-47 1.72092e-47 2.12201e-47 2.57926e-47 3.09074e-47 3.65196e-47 4.25576e-47 4.89242e-47 5.55007e-47 6.21521e-47 6.8735e-47 7.51062e-47 8.11327e-47 8.67e-47 9.17201e-47 9.61371e-47 9.99295e-47 1.03111e-46 1.05725e-46 1.07842e-46 1.0955e-46 1.10946e-46 1.12129e-46 1.13188e-46 1.14201e-46 1.15227e-46 1.16305e-46 1.17455e-46 1.1868e-46 1.19968e-46 1.21298e-46 1.22647e-46 1.23987e-46 1.25297e-46 1.26559e-46 1.27762e-46 1.28901e-46 1.29973e-46 1.30981e-46 1.31924e-46 1.32802e-46 1.3361e-46 1.34338e-46 1.34969e-46 1.35482e-46 1.35852e-46 1.36049e-46 1.36046e-46 1.35817e-46 1.3534e-46 1.34601e-46 1.33595e-46 1.32327e-46 1.30813e-46 1.2908e-46 1.27165e-46 1.25115e-46 1.2298e-46 1.20819e-46 1.1869e-46 1.16648e-46 1.14746e-46 1.13029e-46 1.11532e-46 1.10283e-46 1.09293e-46 1.08567e-46 1.08095e-46 1.07862e-46 1.07842e-46 1.08006e-46 1.08322e-46 1.08758e-46 1.09284e-46 1.09873e-46 1.10503e-46 1.11154e-46 1.11815e-46 1.12474e-46 1.13126e-46 1.13767e-46 1.14396e-46 1.15013e-46 1.15622e-46 1.16228e-46 1.1684e-46 1.17469e-46 1.18127e-46 1.1883e-46 1.19592e-46 1.20426e-46 1.21339e-46 1.22332e-46 1.23396e-46 1.24508e-46 1.25634e-46 1.26724e-46 1.27715e-46 1.28532e-46 1.29091e-46 1.29305e-46 1.29083e-46 1.28342e-46 1.27007e-46 1.25014e-46 1.22321e-46 1.18904e-46 1.14764e-46 1.09926e-46 1.04439e-46 9.83755e-47 9.18283e-47 8.4907e-47 7.77338e-47 7.04377e-47 6.31492e-47 5.59945e-47 4.90899e-47 4.25377e-47 3.64219e-47 3.08066e-47 2.5734e-47 2.12254e-47 1.72822e-47 1.38886e-47 1.10145e-47 8.61891e-48 6.65377e-48 5.06718e-48 3.80635e-48 2.8201e-48 2.06066e-48 1.48497e-48 1.05533e-48 7.39615e-49 5.11177e-49 3.48407e-49 2.34185e-49 1.55238e-49 1.01489e-49 6.54391e-50 4.16175e-50 2.61069e-50 1.61549e-50 9.86157e-51 5.939e-51 3.52888e-51 2.06895e-51 1.19698e-51 6.83407e-52 3.85096e-52 2.14186e-52 1.17593e-52 6.37359e-53 3.41063e-53 1.80208e-53 9.4025e-54 4.84486e-54 2.46564e-54 1.23945e-54 6.15488e-55 3.01953e-55 1.46358e-55 7.00829e-56 3.31287e-56 1.53959e-56 6.88534e-57 2.61851e-57 0 
0 3.18135e-76 1.16823e-75 3.9467e-75 1.31424e-74 4.33765e-74 1.41955e-73 4.60633e-73 1.48199e-72 4.72709e-72 1.49477e-71 4.68556e-71 1.45588e-70 4.48377e-70 1.36862e-69 4.14016e-69 1.24113e-68 3.68686e-68 1.08519e-67 3.16468e-67 9.14331e-67 2.61695e-66 7.4195e-66 2.08358e-65 5.79522e-65 1.59633e-64 4.35445e-64 1.17617e-63 3.1456e-63 8.32905e-63 2.1833e-62 5.66527e-62 1.45507e-61 3.69886e-61 9.30542e-61 2.3166e-60 5.7066e-60 1.39084e-59 3.3536e-59 7.99915e-59 1.88727e-58 4.40396e-58 1.01632e-57 2.31931e-57 5.23342e-57 1.16753e-56 2.57495e-56 5.61361e-56 1.20962e-55 2.57598e-55 5.42103e-55 1.12726e-54 2.31593e-54 4.70045e-54 9.42374e-54 1.86609e-53 3.6494e-53 7.04767e-53 1.34388e-52 2.52998e-52 4.70188e-52 8.62543e-52 1.5617e-51 2.79046e-51 4.92007e-51 8.55932e-51 1.46905e-50 2.48724e-50 4.15375e-50 6.84168e-50 1.11133e-49 1.78008e-49 2.81136e-49 4.37757e-49 6.71978e-49 1.01683e-48 1.51663e-48 2.22956e-48 3.2303e-48 4.61238e-48 6.49e-48 8.99882e-48 1.22952e-47 1.65534e-47 2.19602e-47 2.87071e-47 3.6979e-47 4.6941e-47 5.87228e-47 7.24028e-47 8.79925e-47 1.05424e-46 1.2454e-46 1.45092e-46 1.66746e-46 1.89094e-46 2.1167e-46 2.33984e-46 2.55547e-46 2.75904e-46 2.94666e-46 3.11535e-46 3.26325e-46 3.38967e-46 3.49511e-46 3.58114e-46 3.65021e-46 3.70536e-46 3.74996e-46 3.78738e-46 3.82072e-46 3.85265e-46 3.88518e-46 3.91966e-46 3.95676e-46 3.99656e-46 4.03867e-46 4.08239e-46 4.12685e-46 4.17116e-46 4.21457e-46 4.25645e-46 4.29643e-46 4.33428e-46 4.36997e-46 4.40352e-46 4.43497e-46 4.46427e-46 4.49126e-46 4.51559e-46 4.53671e-46 4.55391e-46 4.56633e-46 4.57301e-46 4.573e-46 4.56542e-46 4.54957e-46 4.52495e-46 4.49139e-46 4.44905e-46 4.39848e-46 4.34057e-46 4.27657e-46 4.20801e-46 4.13665e-46 4.0644e-46 3.9932e-46 3.92493e-46 3.86136e-46 3.80397e-46 3.75398e-46 3.71225e-46 3.67923e-46 3.65501e-46 3.63932e-46 3.63157e-46 3.63096e-46 3.63648e-46 3.64708e-46 3.66167e-46 3.67925e-46 3.69892e-46 3.71992e-46 3.74165e-46 3.76366e-46 3.78562e-46 3.80733e-46 3.82868e-46 3.84961e-46 3.87017e-46 3.89045e-46 3.91066e-46 3.93105e-46 3.95201e-46 3.97397e-46 3.99745e-46 4.02292e-46 4.05083e-46 4.08144e-46 4.11478e-46 4.15054e-46 4.18802e-46 4.22604e-46 4.26294e-46 4.29663e-46 4.3246e-46 4.34405e-46 4.35202e-46 4.3455e-46 4.32164e-46 4.27788e-46 4.21211e-46 4.12283e-46 4.00921e-46 3.87122e-46 3.70966e-46 3.52611e-46 3.32298e-46 3.10335e-46 2.87087e-46 2.62965e-46 2.38402e-46 2.13839e-46 1.89702e-46 1.66388e-46 1.44244e-46 1.23558e-46 1.0455e-46 8.7367e-47 7.20847e-47 5.87111e-47 4.71954e-47 3.74376e-47 2.93011e-47 2.26242e-47 1.72318e-47 1.29454e-47 9.59173e-48 7.00893e-48 5.05082e-48 3.58934e-48 2.51538e-48 1.7383e-48 1.18464e-48 7.96138e-49 5.27652e-49 3.44887e-49 2.22328e-49 1.41358e-49 8.86504e-50 5.48401e-50 3.3466e-50 2.01477e-50 1.19673e-50 7.01374e-51 4.05621e-51 2.31496e-51 1.30394e-51 7.24935e-52 3.97839e-52 2.15537e-52 1.15287e-52 6.08874e-53 3.17541e-53 1.63546e-53 8.31936e-54 4.18012e-54 2.07481e-54 1.01741e-54 4.92912e-55 2.3592e-55 1.1147e-55 5.17799e-56 2.31476e-56 8.80037e-57 0 
0 1.04052e-75 3.82163e-75 1.29138e-74 4.30131e-74 1.41999e-73 4.64827e-73 1.50872e-72 4.85527e-72 1.5491e-71 4.89984e-71 1.53636e-70 4.77513e-70 1.47106e-69 4.49163e-69 1.35917e-68 4.07583e-68 1.21115e-67 3.56607e-67 1.04032e-66 3.00671e-66 8.60875e-66 2.44162e-65 6.85926e-65 1.90855e-64 5.25926e-64 1.43519e-63 3.87815e-63 1.03762e-62 2.7486e-62 7.20801e-62 1.87117e-61 4.80808e-61 1.22279e-60 3.07766e-60 7.6655e-60 1.88918e-59 4.60664e-59 1.1113e-58 2.65205e-58 6.26026e-58 1.46159e-57 3.37474e-57 7.70542e-57 1.73962e-56 3.88304e-56 8.56858e-56 1.86905e-55 4.02965e-55 8.58628e-55 1.80796e-54 3.76165e-54 7.73262e-54 1.57033e-53 3.1501e-53 6.24142e-53 1.2213e-52 2.35992e-52 4.50256e-52 8.48135e-52 1.57713e-51 2.89483e-51 5.24424e-51 9.37567e-51 1.654e-50 2.87898e-50 4.94386e-50 8.37479e-50 1.39932e-49 2.30597e-49 3.74751e-49 6.0054e-49 9.48881e-49 1.47814e-48 2.26993e-48 3.43616e-48 5.12697e-48 7.53959e-48 1.09271e-47 1.56066e-47 2.19653e-47 3.0463e-47 4.16296e-47 5.60555e-47 7.43734e-47 9.72306e-47 1.25252e-46 1.58993e-46 1.9889e-46 2.45201e-46 2.97958e-46 3.56918e-46 4.2154e-46 4.90971e-46 5.64065e-46 6.39423e-46 7.15467e-46 7.90522e-46 8.62928e-46 9.31147e-46 9.93866e-46 1.05009e-45 1.09919e-45 1.14096e-45 1.17558e-45 1.20361e-45 1.22589e-45 1.24348e-45 1.25752e-45 1.26917e-45 1.27949e-45 1.28938e-45 1.29954e-45 1.31042e-45 1.32224e-45 1.33504e-45 1.34867e-45 1.3629e-45 1.37742e-45 1.39194e-45 1.40619e-45 1.41997e-45 1.43314e-45 1.44562e-45 1.4574e-45 1.46848e-45 1.47887e-45 1.48857e-45 1.49751e-45 1.50557e-45 1.51259e-45 1.51831e-45 1.52245e-45 1.52469e-45 1.52472e-45 1.52224e-45 1.51701e-45 1.50887e-45 1.49777e-45 1.48375e-45 1.46699e-45 1.4478e-45 1.42658e-45 1.40385e-45 1.38019e-45 1.35623e-45 1.33262e-45 1.30998e-45 1.2889e-45 1.26988e-45 1.25332e-45 1.2395e-45 1.22857e-45 1.22056e-45 1.21538e-45 1.21284e-45 1.21265e-45 1.2145e-45 1.21802e-45 1.22286e-45 1.22869e-45 1.2352e-45 1.24215e-45 1.24934e-45 1.25661e-45 1.26386e-45 1.27104e-45 1.27808e-45 1.285e-45 1.29179e-45 1.29849e-45 1.30516e-45 1.3119e-45 1.31883e-45 1.3261e-45 1.33388e-45 1.34233e-45 1.35159e-45 1.36177e-45 1.37287e-45 1.3848e-45 1.39733e-45 1.41006e-45 1.42247e-45 1.43383e-45 1.44334e-45 1.45006e-45 1.45299e-45 1.45114e-45 1.44355e-45 1.42937e-45 1.40786e-45 1.37853e-45 1.34108e-45 1.29549e-45 1.24199e-45 1.18111e-45 1.11363e-45 1.04056e-45 9.63107e-46 8.82644e-46 8.00614e-46 7.18493e-46 6.37715e-46 5.59611e-46 4.85359e-46 4.15937e-46 3.52095e-46 2.94341e-46 2.4294e-46 1.97931e-46 1.59153e-46 1.26279e-46 9.88551e-47 7.6342e-47 5.81539e-47 4.36925e-47 3.23756e-47 2.36584e-47 1.70487e-47 1.21151e-47 8.48953e-48 5.86625e-48 3.99725e-48 2.68592e-48 1.77979e-48 1.16307e-48 7.49577e-49 4.76461e-49 2.98718e-49 1.84733e-49 1.12695e-49 6.78231e-50 4.02708e-50 2.35928e-50 1.36389e-50 7.78082e-51 4.38084e-51 2.43452e-51 1.33546e-51 7.23188e-52 3.86647e-52 2.04108e-52 1.06398e-52 5.47732e-53 2.78491e-53 1.39863e-53 6.93881e-54 3.4009e-54 1.64687e-54 7.87855e-55 3.72076e-55 1.72757e-55 7.71966e-56 2.93397e-56 0 
0 3.37434e-75 1.23958e-74 4.18968e-74 1.39583e-73 4.60922e-73 1.50919e-72 4.89979e-72 1.57725e-71 5.03371e-71 1.59263e-70 4.99519e-70 1.55301e-69 4.7858e-69 1.46172e-68 4.42461e-68 1.32727e-67 3.94537e-67 1.16206e-66 3.39124e-66 9.80487e-66 2.80834e-65 7.96806e-65 2.23933e-64 6.23325e-64 1.71834e-63 4.69108e-63 1.26815e-62 3.39442e-62 8.99559e-62 2.36008e-61 6.12943e-61 1.57571e-60 4.00923e-60 1.00957e-59 2.51573e-59 6.20314e-59 1.51335e-58 3.65264e-58 8.72127e-58 2.05976e-57 4.81148e-57 1.11154e-56 2.53933e-56 5.73608e-56 1.28108e-55 2.82849e-55 6.17325e-55 1.33171e-54 2.8392e-54 5.98182e-54 1.24531e-53 2.56141e-53 5.20475e-53 1.0447e-52 2.07113e-52 4.05514e-52 7.8404e-52 1.49678e-51 2.82112e-51 5.24904e-51 9.64025e-51 1.74743e-50 3.12586e-50 5.51758e-50 9.60936e-50 1.65105e-49 2.79834e-49 4.67814e-49 7.71316e-49 1.25411e-48 2.01069e-48 3.17845e-48 4.95348e-48 7.61012e-48 1.15246e-47 1.72019e-47 2.53054e-47 3.66867e-47 5.24129e-47 7.37869e-47 1.02356e-46 1.39903e-46 1.88413e-46 2.50012e-46 3.26873e-46 4.21092e-46 5.34527e-46 6.68624e-46 8.24235e-46 1.00143e-45 1.19937e-45 1.41619e-45 1.64898e-45 1.89384e-45 2.14602e-45 2.40019e-45 2.65069e-45 2.89192e-45 3.11872e-45 3.32668e-45 3.5125e-45 3.67412e-45 3.81089e-45 3.92351e-45 4.01389e-45 4.08495e-45 4.14028e-45 4.1838e-45 4.21943e-45 4.25077e-45 4.28087e-45 4.31207e-45 4.34589e-45 4.38309e-45 4.42375e-45 4.4674e-45 4.51324e-45 4.56024e-45 4.60738e-45 4.65377e-45 4.6987e-45 4.74169e-45 4.78249e-45 4.82103e-45 4.85732e-45 4.89139e-45 4.92321e-45 4.95257e-45 4.97909e-45 5.00219e-45 5.02106e-45 5.03475e-45 5.04221e-45 5.04241e-45 5.03436e-45 5.01727e-45 4.99061e-45 4.95417e-45 4.90813e-45 4.85307e-45 4.78998e-45 4.72022e-45 4.64547e-45 4.56765e-45 4.48885e-45 4.41119e-45 4.33675e-45 4.26745e-45 4.20492e-45 4.15049e-45 4.10509e-45 4.06921e-45 4.04295e-45 4.02599e-45 4.0177e-45 4.01716e-45 4.02329e-45 4.03491e-45 4.05085e-45 4.07001e-45 4.09139e-45 4.11418e-45 4.13774e-45 4.16158e-45 4.18535e-45 4.20883e-45 4.23191e-45 4.25455e-45 4.27679e-45 4.29874e-45 4.32061e-45 4.34271e-45 4.36544e-45 4.38929e-45 4.41484e-45 4.44262e-45 4.47313e-45 4.5067e-45 4.54338e-45 4.58287e-45 4.62441e-45 4.66675e-45 4.7081e-45 4.74618e-45 4.77826e-45 4.80128e-45 4.81195e-45 4.80697e-45 4.78315e-45 4.73763e-45 4.66802e-45 4.57254e-45 4.45021e-45 4.30087e-45 4.12525e-45 3.92502e-45 3.70269e-45 3.46159e-45 3.20568e-45 2.93947e-45 2.66773e-45 2.39538e-45 2.12718e-45 1.86759e-45 1.62057e-45 1.38941e-45 1.17666e-45 9.8404e-46 8.12492e-46 6.62182e-46 5.32606e-46 4.227e-46 3.30974e-46 2.55644e-46 1.94766e-46 1.46347e-46 1.08448e-46 7.92505e-47 5.71091e-47 4.05809e-47 2.84344e-47 1.9646e-47 1.33848e-47 8.99232e-48 5.95746e-48 3.89222e-48 2.50784e-48 1.59364e-48 9.98834e-49 6.175e-49 3.76575e-49 2.26551e-49 1.34467e-49 7.87469e-50 4.55047e-50 2.5949e-50 1.46038e-50 8.112e-51 4.44784e-51 2.40752e-51 1.28656e-51 6.78843e-52 3.53697e-52 1.81994e-52 9.24886e-53 4.64266e-53 2.30215e-53 1.12779e-53 5.45857e-54 2.61007e-54 1.23204e-54 5.71771e-55 2.55385e-55 9.70313e-56 0 
0 1.08493e-74 3.98636e-74 1.34768e-73 4.49105e-73 1.48339e-72 4.85834e-72 1.57775e-71 5.08022e-71 1.62179e-70 5.13272e-70 1.61034e-69 5.0081e-69 1.54379e-68 4.71671e-68 1.42822e-67 4.28573e-67 1.27439e-66 3.75491e-66 1.09619e-65 3.17051e-65 9.08452e-65 2.57853e-64 7.24952e-64 2.01874e-63 5.56744e-63 1.52055e-62 4.11228e-62 1.10121e-61 2.91963e-61 7.66339e-61 1.9912e-60 5.12127e-60 1.30368e-59 3.2844e-59 8.18845e-59 2.02008e-58 4.9308e-58 1.19073e-57 2.84456e-57 6.72179e-57 1.57103e-56 3.63137e-56 8.30053e-56 1.87607e-55 4.19233e-55 9.26162e-55 2.02255e-54 4.36567e-54 9.31315e-54 1.96333e-53 4.08977e-53 8.41716e-53 1.71139e-52 3.43722e-52 6.81852e-52 1.33584e-51 2.58436e-51 4.93673e-51 9.31038e-51 1.73336e-50 3.18537e-50 5.7774e-50 1.03409e-49 1.82639e-49 3.18265e-49 5.47144e-49 9.27863e-49 1.552e-48 2.56025e-48 4.16495e-48 6.68087e-48 1.0566e-47 1.64743e-47 2.53208e-47 3.83609e-47 5.72806e-47 8.4295e-47 1.22248e-46 1.74704e-46 2.46014e-46 3.41346e-46 4.66654e-46 6.28563e-46 8.34165e-46 1.0907e-45 1.40514e-45 1.78365e-45 2.23101e-45 2.74997e-45 3.34069e-45 4.00022e-45 4.7222e-45 5.49678e-45 6.3108e-45 7.14828e-45 7.99127e-45 8.82081e-45 9.61818e-45 1.03662e-44 1.10501e-44 1.16591e-44 1.21865e-44 1.26303e-44 1.2993e-44 1.32814e-44 1.35053e-44 1.36769e-44 1.38094e-44 1.39162e-44 1.40093e-44 1.40989e-44 1.41929e-44 1.42964e-44 1.44119e-44 1.45395e-44 1.46779e-44 1.4824e-44 1.49747e-44 1.51263e-44 1.5276e-44 1.54212e-44 1.55603e-44 1.56925e-44 1.58176e-44 1.59354e-44 1.60462e-44 1.61497e-44 1.62453e-44 1.63318e-44 1.64072e-44 1.64689e-44 1.65139e-44 1.65385e-44 1.65395e-44 1.65136e-44 1.64582e-44 1.63716e-44 1.6253e-44 1.61031e-44 1.59237e-44 1.5718e-44 1.54905e-44 1.52467e-44 1.49929e-44 1.47359e-44 1.44826e-44 1.42398e-44 1.40138e-44 1.381e-44 1.36326e-44 1.34847e-44 1.33679e-44 1.32825e-44 1.32275e-44 1.32007e-44 1.31992e-44 1.32193e-44 1.32574e-44 1.33094e-44 1.33718e-44 1.34414e-44 1.35156e-44 1.35922e-44 1.36696e-44 1.37469e-44 1.38231e-44 1.38981e-44 1.39716e-44 1.40438e-44 1.41151e-44 1.41862e-44 1.4258e-44 1.43319e-44 1.44096e-44 1.44928e-44 1.45834e-44 1.46831e-44 1.47929e-44 1.49131e-44 1.50428e-44 1.51795e-44 1.53191e-44 1.5456e-44 1.55825e-44 1.569e-44 1.57683e-44 1.58066e-44 1.57942e-44 1.57206e-44 1.55761e-44 1.53529e-44 1.50451e-44 1.46491e-44 1.41642e-44 1.35927e-44 1.29398e-44 1.22135e-44 1.14246e-44 1.0586e-44 9.71241e-45 8.81955e-45 7.92355e-45 7.04021e-45 6.18432e-45 5.36903e-45 4.60537e-45 3.9019e-45 3.26451e-45 2.69642e-45 2.19834e-45 1.7687e-45 1.40409e-45 1.09965e-45 8.49521e-46 6.4731e-46 4.86441e-46 3.60492e-46 2.63443e-46 1.89839e-46 1.34891e-46 9.45083e-47 6.52904e-47 4.44759e-47 2.98748e-47 1.97881e-47 1.29252e-47 8.3258e-48 5.28922e-48 3.31406e-48 2.04814e-48 1.24859e-48 7.50885e-49 4.45506e-49 2.60792e-49 1.50638e-49 8.58639e-50 4.83015e-50 2.68179e-50 1.46975e-50 7.95165e-51 4.24724e-51 2.23993e-51 1.16649e-51 5.99914e-52 3.0472e-52 1.52883e-52 7.57716e-53 3.71005e-53 1.79477e-53 8.57748e-54 4.04682e-54 1.87715e-54 8.38067e-55 3.18309e-55 0 
0 3.45834e-74 1.27096e-73 4.29782e-73 1.43259e-72 4.73307e-72 1.55058e-71 5.03692e-71 1.62231e-70 5.18051e-70 1.64005e-69 5.14706e-69 1.60123e-68 4.93753e-68 1.50905e-67 4.57093e-67 1.3721e-66 4.08149e-66 1.20302e-65 3.51334e-65 1.01655e-64 2.91387e-64 8.27395e-64 2.32716e-63 6.48302e-63 1.78869e-62 4.88729e-62 1.32234e-61 3.54261e-61 9.3968e-61 2.46761e-60 6.41472e-60 1.65063e-59 4.20394e-59 1.05965e-58 2.64319e-58 6.52408e-58 1.5933e-57 3.84969e-57 9.20163e-57 2.17558e-56 5.08764e-56 1.17666e-55 2.69113e-55 6.08597e-55 1.3608e-54 3.00804e-54 6.57291e-54 1.41962e-53 3.03029e-53 6.39219e-53 1.33237e-52 2.74386e-52 5.58239e-52 1.12189e-51 2.22694e-51 4.36564e-51 8.45125e-51 1.61541e-50 3.04848e-50 5.6791e-50 1.04429e-49 1.89523e-49 3.39433e-49 5.99862e-49 1.04594e-48 1.79917e-48 3.05285e-48 5.10926e-48 8.43307e-48 1.3726e-47 2.20288e-47 3.48566e-47 5.43733e-47 8.3609e-47 1.26722e-46 1.89297e-46 2.78676e-46 4.04287e-46 5.77943e-46 8.14073e-46 1.12981e-45 1.54488e-45 2.08123e-45 2.76235e-45 3.61218e-45 4.65374e-45 5.90731e-45 7.38852e-45 9.10626e-45 1.10607e-44 1.32417e-44 1.56276e-44 1.81854e-44 2.08709e-44 2.36307e-44 2.64049e-44 2.91305e-44 3.17453e-44 3.41922e-44 3.64232e-44 3.84023e-44 4.01081e-44 4.15348e-44 4.26916e-44 4.36013e-44 4.42976e-44 4.48215e-44 4.52176e-44 4.55301e-44 4.57995e-44 4.60598e-44 4.63369e-44 4.66479e-44 4.70009e-44 4.73968e-44 4.78301e-44 4.82915e-44 4.87695e-44 4.92528e-44 4.9731e-44 5.01961e-44 5.06425e-44 5.10673e-44 5.14693e-44 5.18487e-44 5.22056e-44 5.25396e-44 5.28485e-44 5.31282e-44 5.33725e-44 5.35727e-44 5.37189e-44 5.37997e-44 5.38041e-44 5.37215e-44 5.35435e-44 5.32644e-44 5.28818e-44 5.23975e-44 5.18178e-44 5.1153e-44 5.04174e-44 4.96289e-44 4.88079e-44 4.79765e-44 4.71572e-44 4.63721e-44 4.56413e-44 4.49823e-44 4.44091e-44 4.39313e-44 4.35544e-44 4.3279e-44 4.31019e-44 4.30161e-44 4.30119e-44 4.30777e-44 4.32011e-44 4.33695e-44 4.35713e-44 4.37961e-44 4.40354e-44 4.42823e-44 4.45319e-44 4.47806e-44 4.50262e-44 4.52675e-44 4.55042e-44 4.57367e-44 4.59664e-44 4.61953e-44 4.64268e-44 4.66652e-44 4.69158e-44 4.71847e-44 4.74779e-44 4.78009e-44 4.81573e-44 4.8548e-44 4.89703e-44 4.94164e-44 4.98734e-44 5.03228e-44 5.07405e-44 5.10976e-44 5.13619e-44 5.14983e-44 5.14714e-44 5.12469e-44 5.07937e-44 5.00854e-44 4.91021e-44 4.7832e-44 4.62719e-44 4.44284e-44 4.23176e-44 3.99653e-44 3.74057e-44 3.46806e-44 3.18376e-44 2.89278e-44 2.60041e-44 2.31181e-44 2.03187e-44 1.76492e-44 1.51464e-44 1.28387e-44 1.0746e-44 8.87948e-45 7.24179e-45 5.82829e-45 4.62806e-45 3.62541e-45 2.80131e-45 2.13483e-45 1.60445e-45 1.18911e-45 8.69007e-46 6.26205e-46 4.44929e-46 3.11703e-46 2.15312e-46 1.46648e-46 9.84865e-47 6.52201e-47 4.25901e-47 2.7427e-47 1.74187e-47 1.09105e-47 6.74052e-48 4.10766e-48 2.46934e-48 1.46449e-48 8.56928e-49 4.94761e-49 2.81888e-49 1.58499e-49 8.79599e-50 4.8183e-50 2.60551e-50 1.391e-50 7.33218e-51 3.81644e-51 1.96174e-51 9.95931e-52 4.99414e-52 2.47389e-52 1.21067e-52 5.85363e-53 2.79608e-53 1.31849e-53 6.11285e-54 2.72787e-54 1.03572e-54 0 