# vtk DataFile Version 3.0
Gray-Scott Simulation Output
ASCII
DATASET STRUCTURED_POINTS
DIMENSIONS 256 256 1
SPACING 1.0 1.0 1.0
ORIGIN 0 0 0
POINT_DATA 65536
SCALARS u double
LOOKUP_TABLE default
0 0 0 0 0 0 0 0 0 0 0 0 0 0 0 0 0 0 0 0 0 0 0 0 0 0 0 0 0 0 0 0 0 0 0 0 0 0 0 0 0 0 0 0 0 0 0 0 0 0 0 0 0 0 0 0 0 0 0 0 0 0 0 0 0 0 0 0 0 0 0 0 0 0 0 0 0 0 0 0 0 0 0 0 0 0 0 0 0 0 0 0 0 0 0 0 0 0 0 0 0 0 0 0 0 0 0 0 0 0 0 0 0 0 0 0 0 0 0 0 0 0 0 0 0 0 0 0 0 0 0 0 0 0 0 0 0 0 0 0 0 0 0 0 0 0 0 0 0 0 0 0 0 0 0 0 0 0 0 0 0 0 0 0 0 0 0 0 0 0 0 0 0 0 0 0 0 0 0 0 0 0 0 0 0 0 0 0 0 0 0 0 0 0 0 0 0 0 0 0 0 0 0 0 0 0 0 0 0 0 0 0 0 0 0 0 0 0 0 0 0 0 0 0 0 0 0 0 0 0 0 0 0 0 0 0 0 0 0 0 0 0 0 0 0 0 0 0 0 0 0 0 0 0 0 0 
0 6.32047e-253 3.61215e-251 2.0379e-249 1.13523e-247 6.24346e-246 3.38973e-244 1.81659e-242 9.60849e-241 5.01547e-239 2.58332e-237 1.31282e-235 6.58175e-234 3.25489e-232 1.58758e-230 7.63631e-229 3.62182e-227 1.69358e-225 7.80666e-224 3.54684e-222 1.58809e-220 7.0065e-219 3.04548e-217 1.30398e-215 5.49895e-214 2.28356e-212 9.33671e-211 3.75796e-209 1.48871e-207 5.80351e-206 2.22593e-204 8.39827e-203 3.11631e-201 1.13704e-199 4.07853e-198 1.43791e-196 4.98152e-195 1.6955e-193 5.66804e-192 1.86065e-190 5.99626e-189 1.89657e-187 5.88591e-186 1.79181e-184 5.34908e-183 1.56547e-181 4.49011e-180 1.26175e-178 3.47255e-177 9.35696e-176 2.4676e-174 6.36658e-173 1.60642e-171 3.96243e-170 9.5505e-169 2.24835e-167 5.16742e-166 1.15891e-164 2.53496e-163 5.40521e-162 1.12288e-160 2.27136e-159 4.47099e-158 8.55879e-157 1.59228e-155 2.87687e-154 5.04417e-153 8.57605e-152 1.4127e-150 2.25266e-149 3.47388e-148 5.17581e-147 7.44256e-146 1.03171e-144 1.37706e-143 1.76744e-142 2.17836e-141 2.57425e-140 2.91209e-139 3.14793e-138 3.24549e-137 3.18467e-136 2.96747e-135 2.61913e-134 2.18362e-133 1.71442e-132 1.26327e-131 8.70278e-131 5.58144e-130 3.31632e-129 1.81549e-128 9.0996e-128 4.14561e-127 1.70235e-126 6.23978e-126 2.01858e-125 5.68904e-125 1.37668e-124 2.81706e-124 4.80914e-124 6.80691e-124 8.06809e-124 8.26939e-124 7.68537e-124 6.84756e-124 6.10163e-124 5.46049e-124 4.83214e-124 4.18803e-124 3.56117e-124 3.09802e-124 2.96764e-124 3.23688e-124 3.94563e-124 5.16065e-124 6.74016e-124 8.23366e-124 9.21596e-124 9.57857e-124 9.44658e-124 8.93991e-124 8.20096e-124 7.49024e-124 7.03474e-124 6.79903e-124 6.58272e-124 6.40611e-124 6.57495e-124 7.21362e-124 8.06164e-124 8.73841e-124 9.03557e-124 8.97279e-124 8.80187e-124 8.80055e-124 9.06976e-124 9.59531e-124 1.02624e-123 1.06817e-123 1.04333e-123 9.49874e-124 8.32606e-124 7.42938e-124 6.90781e-124 6.53716e-124 6.17111e-124 5.89992e-124 5.8214e-124 5.77992e-124 5.51339e-124 4.99169e-124 4.3488e-124 3.74185e-124 3.42263e-124 3.63883e-124 4.42363e-124 5.48186e-124 6.30883e-124 6.59641e-124 6.48434e-124 6.26774e-124 6.07029e-124 5.90191e-124 5.8349e-124 5.8545e-124 5.77535e-124 5.48642e-124 5.1158e-124 4.97499e-124 5.28851e-124 6.0454e-124 6.96415e-124 7.63704e-124 7.90913e-124 7.90361e-124 7.67253e-124 7.135e-124 6.31774e-124 5.4371e-124 4.74728e-124 4.44872e-124 4.58381e-124 5.05992e-124 5.76991e-124 6.68744e-124 7.86061e-124 9.25032e-124 1.05942e-123 1.15055e-123 1.17652e-123 1.13851e-123 1.051e-123 9.47603e-124 8.70667e-124 8.35869e-124 8.16631e-124 7.65892e-124 6.63441e-124 5.30335e-124 3.97087e-124 2.75946e-124 1.7183e-124 9.29701e-125 4.31744e-125 1.72403e-125 5.97097e-126 1.81313e-126 4.87981e-127 1.17574e-127 2.55875e-128 5.06956e-129 9.20722e-130 1.54216e-130 2.39488e-131 3.46444e-132 4.68804e-133 5.95629e-134 7.12914e-135 8.06274e-136 8.63958e-137 8.79306e-138 8.5193e-139 7.87371e-140 6.95485e-141 5.88148e-142 4.76952e-143 3.7145e-144 2.78205e-145 2.00645e-146 1.39513e-147 9.3629e-149 6.07122e-150 3.80751e-151 2.31158e-152 1.35976e-153 7.75643e-155 4.29384e-156 2.30854e-157 1.20626e-158 6.12979e-160 3.03129e-161 1.45966e-162 6.84796e-164 3.13184e-165 1.39698e-166 6.08072e-168 2.58403e-169 1.07255e-170 4.35018e-172 1.72483e-173 6.68827e-175 2.53732e-176 9.42092e-178 3.42471e-179 1.21787e-180 0 
0 3.6123e-251 2.05937e-249 1.15901e-247 6.44058e-246 3.53353e-244 1.91378e-242 1.02313e-240 5.39855e-239 2.81116e-237 1.44446e-235 7.32303e-234 3.66258e-232 1.80694e-230 8.79241e-229 4.21915e-227 1.99636e-225 9.31303e-224 4.28277e-222 1.94124e-220 8.67147e-219 3.81682e-217 1.65517e-215 7.07043e-214 2.97472e-212 1.23245e-210 5.02746e-209 2.01885e-207 7.97929e-206 3.10347e-204 1.18761e-202 4.47055e-201 1.65509e-199 6.02517e-198 2.15632e-196 7.58506e-195 2.62187e-193 8.90365e-192 2.96982e-190 9.72721e-189 3.12777e-187 9.8709e-186 3.05658e-184 9.28436e-183 2.76554e-181 8.07584e-180 2.31123e-178 6.48047e-177 1.77964e-175 4.78487e-174 1.25911e-172 3.24155e-171 8.16143e-170 2.00877e-168 4.83123e-167 1.13491e-165 2.6028e-164 5.8249e-163 1.27141e-161 2.70522e-160 5.60793e-159 1.13197e-157 2.2235e-156 4.24749e-155 7.8855e-154 1.42174e-152 2.48763e-151 4.22065e-150 6.93812e-149 1.10405e-147 1.69908e-146 2.5263e-145 3.62527e-144 5.01519e-143 6.68037e-142 8.55685e-141 1.0525e-139 1.24128e-138 1.40137e-137 1.51185e-136 1.55561e-135 1.52344e-134 1.41676e-133 1.24801e-132 1.03847e-131 8.13757e-131 5.98469e-130 4.11511e-129 2.63423e-128 1.56227e-127 8.53689e-127 4.27117e-126 1.94245e-125 7.96279e-125 2.91387e-124 9.41169e-124 2.64868e-123 6.40111e-123 1.30841e-122 2.23182e-122 3.15742e-122 3.74187e-122 3.83547e-122 3.56506e-122 3.1766e-122 2.83032e-122 2.53263e-122 2.24111e-122 1.94244e-122 1.65201e-122 1.43757e-122 1.37728e-122 1.50232e-122 1.83137e-122 2.39495e-122 3.12708e-122 3.81932e-122 4.2749e-122 4.44328e-122 4.38207e-122 4.147e-122 3.8044e-122 3.47497e-122 3.2637e-122 3.15427e-122 3.05425e-122 2.97304e-122 3.05161e-122 3.34737e-122 3.74002e-122 4.05355e-122 4.19137e-122 4.16261e-122 4.08376e-122 4.08338e-122 4.20843e-122 4.45235e-122 4.76148e-122 4.95555e-122 4.8404e-122 4.40754e-122 3.86409e-122 3.44775e-122 3.20482e-122 3.03217e-122 2.86229e-122 2.73663e-122 2.70002e-122 2.68044e-122 2.55681e-122 2.315e-122 2.0169e-122 1.7356e-122 1.58784e-122 1.68821e-122 2.05191e-122 2.54213e-122 2.92535e-122 3.05899e-122 3.00746e-122 2.90713e-122 2.81555e-122 2.73766e-122 2.7067e-122 2.71559e-122 2.67869e-122 2.5448e-122 2.37327e-122 2.30827e-122 2.45379e-122 2.80466e-122 3.23037e-122 3.54234e-122 3.66878e-122 3.66632e-122 3.55901e-122 3.30968e-122 2.93085e-122 2.52263e-122 2.20277e-122 2.06408e-122 2.12633e-122 2.34685e-122 2.67619e-122 3.10211e-122 3.64665e-122 4.29135e-122 4.91454e-122 5.3372e-122 5.45777e-122 5.2816e-122 4.87602e-122 4.39692e-122 4.04015e-122 3.87817e-122 3.78805e-122 3.55222e-122 3.07709e-122 2.45985e-122 1.84169e-122 1.27976e-122 7.97065e-123 4.31514e-123 2.00578e-123 8.01898e-124 2.78113e-124 8.45798e-125 2.28004e-125 5.50283e-126 1.19968e-126 2.38114e-127 4.3325e-128 7.2702e-129 1.13115e-129 1.63944e-130 2.22273e-131 2.82952e-132 3.3933e-133 3.84522e-134 4.12847e-135 4.21017e-136 4.08724e-137 3.78509e-138 3.35011e-139 2.83881e-140 2.30678e-141 1.80018e-142 1.35104e-143 9.76392e-145 6.80306e-146 4.57507e-147 2.97278e-148 1.86823e-149 1.13659e-150 6.69987e-152 3.8298e-153 2.12458e-154 1.14467e-155 5.99379e-157 3.0523e-158 1.51263e-159 7.2993e-161 3.43179e-162 1.57286e-163 7.03096e-165 3.067e-166 1.30615e-167 5.43319e-169 2.20844e-170 8.77549e-172 3.41024e-173 1.29657e-174 4.82466e-176 1.75773e-177 6.26444e-179 0 
0 2.03806e-249 1.15905e-247 6.50717e-246 3.60722e-244 1.97424e-242 1.06667e-240 5.68873e-239 2.99443e-237 1.55552e-235 7.97358e-234 4.03271e-232 2.01213e-230 9.90322e-229 4.80737e-227 2.30141e-225 1.08637e-223 5.056e-222 2.31963e-220 1.04894e-218 4.67464e-217 2.05278e-215 8.88116e-214 3.78498e-212 1.58875e-210 6.56713e-209 2.67271e-207 1.0708e-205 4.2225e-204 1.63854e-202 6.25593e-201 2.34957e-199 8.67885e-198 3.15228e-196 1.1256e-194 3.95049e-193 1.36246e-191 4.61644e-190 1.53637e-188 5.02092e-187 1.61088e-185 5.07246e-184 1.56724e-182 4.74995e-181 1.41175e-179 4.11349e-178 1.17466e-176 3.28643e-175 9.00537e-174 2.41598e-172 6.34371e-171 1.62963e-169 4.09416e-168 1.00552e-166 2.41316e-165 5.65662e-164 1.29452e-162 2.89086e-161 6.2965e-160 1.33689e-158 2.76551e-157 5.57047e-156 1.09189e-154 2.08143e-153 3.85611e-152 6.93801e-151 1.21142e-149 2.0511e-148 3.36473e-147 5.34321e-146 8.20605e-145 1.21763e-143 1.74374e-142 2.40738e-141 3.20019e-140 4.09082e-139 5.02161e-138 5.91044e-137 6.6594e-136 7.17008e-135 7.36303e-134 7.19658e-133 6.67948e-132 5.87243e-131 4.87699e-130 3.81431e-129 2.79984e-128 1.92154e-127 1.22775e-126 7.26787e-126 3.96421e-125 1.97981e-124 8.98802e-124 3.67823e-123 1.34379e-122 4.3336e-122 1.21781e-121 2.93929e-121 6.00144e-121 1.02286e-120 1.44638e-120 1.71385e-120 1.75684e-120 1.63319e-120 1.45531e-120 1.29655e-120 1.16006e-120 1.02649e-120 8.89715e-121 7.56831e-121 6.58779e-121 6.31246e-121 6.886e-121 8.39464e-121 1.09763e-120 1.43276e-120 1.74964e-120 1.9583e-120 2.03551e-120 2.00748e-120 1.89977e-120 1.7429e-120 1.59211e-120 1.49533e-120 1.44517e-120 1.3995e-120 1.36262e-120 1.39873e-120 1.53398e-120 1.71353e-120 1.85697e-120 1.92009e-120 1.90709e-120 1.87117e-120 1.87109e-120 1.92846e-120 2.04026e-120 2.18173e-120 2.27043e-120 2.21772e-120 2.01973e-120 1.77101e-120 1.5801e-120 1.46836e-120 1.38894e-120 1.31108e-120 1.25358e-120 1.23672e-120 1.22759e-120 1.17097e-120 1.06028e-120 9.23768e-121 7.9502e-121 7.27472e-121 7.73485e-121 9.39943e-121 1.16422e-120 1.33959e-120 1.40093e-120 1.37752e-120 1.33163e-120 1.28968e-120 1.2541e-120 1.23997e-120 1.24396e-120 1.22697e-120 1.16569e-120 1.0873e-120 1.05766e-120 1.12436e-120 1.285e-120 1.4798e-120 1.62264e-120 1.68067e-120 1.67959e-120 1.63037e-120 1.51616e-120 1.34274e-120 1.15586e-120 1.0094e-120 9.4577e-121 9.74091e-121 1.07496e-120 1.22583e-120 1.42108e-120 1.67069e-120 1.96606e-120 2.25145e-120 2.44504e-120 2.50033e-120 2.41969e-120 2.23406e-120 2.01483e-120 1.85143e-120 1.77698e-120 1.73529e-120 1.62704e-120 1.40944e-120 1.12677e-120 8.43554e-121 5.86136e-121 3.65134e-121 1.97791e-121 9.20231e-122 3.68341e-122 1.27924e-122 3.89633e-123 1.05204e-123 2.54337e-124 5.55452e-125 1.10445e-125 2.01322e-126 3.38459e-127 5.27586e-128 7.66117e-129 1.04069e-129 1.32735e-130 1.59493e-131 1.81089e-132 1.94812e-133 1.99062e-134 1.93635e-135 1.7968e-136 1.59352e-137 1.35304e-138 1.10169e-139 8.61498e-141 6.47879e-142 4.69179e-143 3.27575e-144 2.2075e-145 1.43736e-146 9.05176e-148 5.51837e-149 3.25971e-150 1.86723e-151 1.03802e-152 5.60439e-154 2.94081e-155 1.50076e-156 7.45315e-158 3.60423e-159 1.69816e-160 7.79966e-162 3.49408e-163 1.52745e-164 6.51902e-166 2.71758e-167 1.10702e-168 4.40842e-170 1.71689e-171 6.54187e-173 2.43963e-174 8.90761e-176 3.18159e-177 0 
0 1.13536e-247 6.4411e-246 3.60736e-244 1.99486e-242 1.08915e-240 5.87035e-239 3.12322e-237 1.64004e-235 8.4991e-234 4.3462e-232 2.19288e-230 1.09153e-228 5.35952e-227 2.59553e-225 1.23961e-223 5.83774e-222 2.7105e-220 1.24063e-218 5.59703e-217 2.48851e-215 1.09024e-213 4.70584e-212 2.00089e-210 8.37937e-209 3.45564e-207 1.40315e-205 5.60871e-204 2.20663e-202 8.5433e-201 3.25439e-199 1.21949e-197 4.49435e-196 1.62872e-194 5.80266e-193 2.03196e-191 6.99219e-190 2.36386e-188 7.84947e-187 2.55953e-185 8.19357e-184 2.57434e-182 7.93635e-181 2.40003e-179 7.11755e-178 2.06933e-176 5.8963e-175 1.64605e-173 4.50063e-172 1.20482e-170 3.15667e-169 8.09165e-168 2.0285e-166 4.97126e-165 1.1905e-163 2.78465e-162 6.35908e-161 1.41706e-159 3.07992e-158 6.52552e-157 1.34704e-155 2.70757e-154 5.29609e-153 1.00746e-151 1.86255e-150 3.34418e-149 5.82703e-148 9.84556e-147 1.61179e-145 2.55426e-144 3.91477e-143 5.79693e-142 8.28477e-141 1.14146e-139 1.5143e-138 1.93184e-137 2.36663e-136 2.77996e-135 3.12599e-134 3.35903e-133 3.44261e-132 3.35817e-131 3.11078e-130 2.7296e-129 2.26253e-128 1.76614e-127 1.29394e-126 8.86362e-126 5.65272e-125 3.34005e-124 1.8185e-123 9.06572e-123 4.10849e-122 1.67849e-121 6.12206e-121 1.97124e-120 5.53151e-120 1.33335e-119 2.71947e-119 4.63119e-119 6.54561e-119 7.75493e-119 7.94992e-119 7.39136e-119 6.58667e-119 5.86764e-119 5.24936e-119 4.64476e-119 4.026e-119 3.42535e-119 2.98243e-119 2.85822e-119 3.11811e-119 3.80144e-119 4.96975e-119 6.4853e-119 7.91823e-119 8.86237e-119 9.21219e-119 9.08536e-119 8.59783e-119 7.88822e-119 7.20629e-119 6.7684e-119 6.5412e-119 6.3352e-119 6.16979e-119 6.33369e-119 6.94478e-119 7.75586e-119 8.40415e-119 8.68977e-119 8.63166e-119 8.46999e-119 8.47012e-119 8.7301e-119 9.2363e-119 9.87589e-119 1.02764e-118 1.00381e-118 9.14344e-119 8.0189e-119 7.1541e-119 6.64636e-119 6.28542e-119 5.93286e-119 5.67291e-119 5.59623e-119 5.55421e-119 5.29798e-119 4.79741e-119 4.17984e-119 3.59768e-119 3.29261e-119 3.501e-119 4.25364e-119 5.26728e-119 6.06014e-119 6.33827e-119 6.23327e-119 6.02588e-119 5.83606e-119 5.67546e-119 5.61182e-119 5.62944e-119 5.55223e-119 5.27514e-119 4.92116e-119 4.78765e-119 5.08971e-119 5.81623e-119 6.69688e-119 7.343e-119 7.60609e-119 7.6014e-119 7.37843e-119 6.86161e-119 6.07732e-119 5.23212e-119 4.56953e-119 4.28117e-119 4.40847e-119 4.8643e-119 5.54702e-119 6.43132e-119 7.56167e-119 8.89848e-119 1.01897e-118 1.10656e-118 1.13161e-118 1.09514e-118 1.01122e-118 9.12103e-119 8.38179e-119 8.04372e-119 7.85325e-119 7.36235e-119 6.37777e-119 5.09889e-119 3.81703e-119 2.65206e-119 1.65243e-119 8.95633e-120 4.17081e-120 1.67143e-120 5.81283e-121 1.77315e-121 4.79539e-122 1.16127e-122 2.54053e-123 5.06055e-124 9.24134e-125 1.55651e-125 2.43083e-126 3.53654e-127 4.81321e-128 6.1509e-129 7.40522e-130 8.42437e-131 9.08063e-132 9.29708e-133 9.06163e-134 8.42538e-135 7.48716e-136 6.37009e-137 5.19725e-138 4.07239e-139 3.06883e-140 2.22692e-141 1.558e-142 1.05209e-143 6.86454e-145 4.33191e-146 2.64642e-147 1.56651e-148 8.99203e-150 5.00929e-151 2.71025e-152 1.42516e-153 7.28828e-155 3.62721e-156 1.75779e-157 8.2996e-159 3.82017e-160 1.71502e-161 7.51334e-163 3.21354e-164 1.34252e-165 5.48064e-167 2.18726e-168 8.53699e-170 3.25994e-171 1.21837e-172 4.45829e-174 1.59589e-175 0 
0 6.24448e-246 3.53396e-244 1.9744e-242 1.08919e-240 5.93233e-239 3.18974e-237 1.69296e-235 8.86861e-234 4.58494e-232 2.33901e-230 1.17734e-228 5.84643e-227 2.86384e-225 1.38363e-223 6.59257e-222 3.09736e-220 1.43475e-218 6.55165e-217 2.94885e-215 1.30804e-213 5.71732e-212 2.46208e-210 1.04444e-208 4.36383e-207 1.7955e-205 7.27384e-204 2.90087e-202 1.13868e-200 4.39853e-199 1.67172e-197 6.2501e-196 2.29823e-194 8.30983e-193 2.95389e-191 1.03207e-189 3.5435e-188 1.19528e-186 3.96023e-185 1.28847e-183 4.11552e-182 1.2902e-180 3.96874e-179 1.19755e-177 3.54366e-176 1.02801e-174 2.92281e-173 8.14174e-172 2.22128e-170 5.93348e-169 1.55124e-167 3.9678e-166 9.9255e-165 2.42724e-163 5.80022e-162 1.35382e-160 3.08502e-159 6.86011e-158 1.48785e-156 3.14571e-155 6.4799e-154 1.29974e-152 2.53701e-151 4.81601e-150 8.88511e-149 1.59199e-147 2.76821e-146 4.66762e-145 7.6255e-144 1.20596e-142 1.84453e-141 2.72579e-140 3.88769e-139 5.34554e-138 7.07728e-137 9.01055e-136 1.10164e-134 1.29146e-133 1.44932e-132 1.55429e-131 1.58983e-130 1.54779e-129 1.43098e-128 1.2532e-127 1.03676e-126 8.07748e-126 5.90664e-125 4.03849e-124 2.57072e-123 1.51618e-122 8.2399e-122 4.10051e-121 1.85506e-120 7.56586e-120 2.75505e-119 8.85724e-119 2.48185e-118 5.9747e-118 1.21727e-117 2.0713e-117 2.92614e-117 3.46624e-117 3.55362e-117 3.30437e-117 2.94477e-117 2.62309e-117 2.34643e-117 2.0761e-117 1.79959e-117 1.53139e-117 1.33375e-117 1.27841e-117 1.39473e-117 1.70047e-117 2.22274e-117 2.89975e-117 3.53985e-117 3.96185e-117 4.11839e-117 4.06171e-117 3.84372e-117 3.52664e-117 3.22201e-117 3.02628e-117 2.92464e-117 2.83286e-117 2.75957e-117 2.83306e-117 3.10579e-117 3.46772e-117 3.75715e-117 3.88481e-117 3.85916e-117 3.78729e-117 3.78755e-117 3.90393e-117 4.13034e-117 4.41598e-117 4.59464e-117 4.48819e-117 4.08885e-117 3.5866e-117 3.19963e-117 2.97173e-117 2.8097e-117 2.652e-117 2.5359e-117 2.50145e-117 2.48236e-117 2.36783e-117 2.14422e-117 1.86823e-117 1.60819e-117 1.47209e-117 1.56532e-117 1.90148e-117 2.35404e-117 2.70813e-117 2.8327e-117 2.78617e-117 2.6936e-117 2.60875e-117 2.53715e-117 2.50882e-117 2.51652e-117 2.48185e-117 2.35809e-117 2.20019e-117 2.14078e-117 2.2759e-117 2.60049e-117 2.99376e-117 3.28247e-117 3.4003e-117 3.3983e-117 3.29851e-117 3.06749e-117 2.71712e-117 2.33952e-117 2.04342e-117 1.91432e-117 1.97083e-117 2.17431e-117 2.4795e-117 2.87512e-117 3.38075e-117 3.97841e-117 4.55545e-117 4.94699e-117 5.05904e-117 4.89617e-117 4.52133e-117 4.07873e-117 3.74836e-117 3.59672e-117 3.51076e-117 3.29086e-117 2.8508e-117 2.27925e-117 1.70613e-117 1.18534e-117 7.38699e-118 4.0061e-118 1.86729e-118 7.49188e-119 2.60906e-119 7.97069e-120 2.15909e-120 5.23729e-121 1.14776e-121 2.29034e-122 4.1901e-123 7.07038e-124 1.10626e-124 1.61251e-125 2.19881e-126 2.81531e-127 3.396e-128 3.87091e-129 4.18065e-130 4.28876e-131 4.18844e-132 3.90212e-133 3.47454e-134 2.96209e-135 2.4216e-136 1.90133e-137 1.4357e-138 1.04395e-139 7.31868e-141 4.9523e-142 3.23788e-143 2.04751e-144 1.25344e-145 7.43499e-147 4.27672e-148 2.38746e-149 1.29443e-150 6.82096e-152 3.49561e-153 1.74336e-154 8.46647e-156 4.00604e-157 1.84784e-158 8.31339e-160 3.64983e-161 1.56443e-162 6.54976e-164 2.67962e-165 1.07172e-166 4.19206e-168 1.60427e-169 6.00886e-171 2.20358e-172 7.90518e-174 0 
0 3.39043e-244 1.9141e-242 1.0668e-240 5.87085e-239 3.18987e-237 1.71103e-235 9.05953e-234 4.73449e-232 2.44182e-230 1.24273e-228 6.2404e-227 3.09152e-225 1.51078e-223 7.28197e-222 3.46146e-220 1.62247e-218 7.49798e-217 3.41588e-215 1.53388e-213 6.78813e-212 2.96015e-210 1.2718e-208 5.38267e-207 2.24379e-205 9.2109e-204 3.72293e-202 1.48135e-200 5.8015e-199 2.23593e-197 8.4787e-196 3.16279e-194 1.16037e-192 4.18617e-191 1.48472e-189 5.17587e-188 1.77312e-186 5.96772e-185 1.97284e-183 6.40447e-182 2.04113e-180 6.38476e-179 1.95968e-177 5.90026e-176 1.74212e-174 5.04286e-173 1.43065e-171 3.97653e-170 1.08255e-168 2.88546e-167 7.52744e-166 1.92125e-164 4.79572e-163 1.17026e-161 2.79054e-160 6.49949e-159 1.47793e-157 3.2795e-156 7.09773e-155 1.49749e-153 3.07821e-152 6.16137e-151 1.20015e-149 2.2735e-148 4.1857e-147 7.48422e-146 1.29869e-144 2.18529e-143 3.56278e-142 5.62297e-141 8.58284e-140 1.26577e-138 1.80166e-137 2.47226e-136 3.26658e-135 4.15056e-134 5.06439e-133 5.92519e-132 6.63631e-131 7.10289e-130 7.25102e-129 7.04552e-128 6.5011e-127 5.68243e-126 4.69198e-125 3.64859e-124 2.66298e-123 1.81731e-122 1.15467e-121 6.79764e-121 3.68759e-120 1.83183e-119 8.27278e-119 3.36835e-118 1.22456e-117 3.93078e-117 1.09985e-116 2.64433e-116 5.38168e-116 9.15007e-116 1.29202e-115 1.53028e-115 1.56895e-115 1.45909e-115 1.30038e-115 1.15822e-115 1.03595e-115 9.16565e-116 7.94518e-116 6.7624e-116 5.89133e-116 5.64773e-116 6.16203e-116 7.51314e-116 9.81912e-116 1.28063e-115 1.56305e-115 1.74935e-115 1.81854e-115 1.79352e-115 1.69725e-115 1.5573e-115 1.42289e-115 1.33648e-115 1.29158e-115 1.25119e-115 1.21911e-115 1.25166e-115 1.37188e-115 1.5314e-115 1.65903e-115 1.71539e-115 1.70421e-115 1.67265e-115 1.67285e-115 1.72431e-115 1.82433e-115 1.95033e-115 2.02904e-115 1.98208e-115 1.80602e-115 1.58447e-115 1.41344e-115 1.31241e-115 1.24056e-115 1.17088e-115 1.11967e-115 1.10438e-115 1.09581e-115 1.04525e-115 9.46588e-116 8.24765e-116 7.10041e-116 6.50063e-116 6.9126e-116 8.39556e-116 1.03913e-115 1.19533e-115 1.25044e-115 1.23007e-115 1.18925e-115 1.15179e-115 1.12027e-115 1.10781e-115 1.11114e-115 1.09576e-115 1.04116e-115 9.71594e-116 9.45482e-116 1.00518e-115 1.14842e-115 1.32189e-115 1.4493e-115 1.50143e-115 1.50058e-115 1.45648e-115 1.35448e-115 1.19987e-115 1.03325e-115 9.02558e-116 8.45467e-116 8.70248e-116 9.59957e-116 1.09471e-115 1.26952e-115 1.49292e-115 1.75685e-115 2.01155e-115 2.18441e-115 2.23393e-115 2.16208e-115 1.99672e-115 1.80151e-115 1.65568e-115 1.5885e-115 1.55019e-115 1.4529e-115 1.25863e-115 1.00632e-115 7.53227e-116 5.23272e-116 3.26165e-116 1.76986e-116 8.25701e-117 3.31674e-117 1.15663e-117 3.53883e-118 9.60125e-119 2.33287e-119 5.12139e-120 1.02378e-120 1.87636e-121 3.172e-122 4.97229e-123 7.26139e-124 9.92045e-125 1.27264e-125 1.5381e-126 1.75661e-127 1.90089e-128 1.95388e-129 1.91196e-130 1.7848e-131 1.5924e-132 1.36026e-133 1.1143e-134 8.76664e-136 6.63315e-137 4.83304e-138 3.39515e-139 2.30209e-140 1.50823e-141 9.55713e-143 5.86279e-144 3.48481e-145 2.00869e-146 1.12368e-147 6.10513e-149 3.22382e-150 1.65562e-151 8.2745e-153 4.02692e-154 1.90944e-155 8.8263e-157 3.97939e-158 1.75081e-159 7.52058e-161 3.15539e-162 1.29371e-163 5.1854e-165 2.03267e-166 7.79573e-168 2.92628e-169 1.07547e-170 3.86659e-172 0 
0 1.81705e-242 1.02335e-240 5.68971e-239 3.12362e-237 1.69311e-235 9.05993e-234 4.78556e-232 2.49495e-230 1.28371e-228 6.51773e-227 3.26514e-225 1.61374e-223 7.86753e-222 3.78323e-220 1.79413e-218 8.38983e-217 3.86817e-215 1.75813e-213 7.87644e-212 3.47761e-210 1.513e-208 6.48548e-207 2.73855e-205 1.13896e-203 4.6648e-202 1.88115e-200 7.46801e-199 2.9181e-197 1.1221e-195 4.24543e-194 1.58009e-192 5.78401e-191 2.08197e-189 7.36766e-188 2.5627e-186 8.75959e-185 2.94163e-183 9.70306e-182 3.14296e-180 9.99467e-179 3.1195e-177 9.55369e-176 2.87016e-174 8.45599e-173 2.4424e-171 6.91396e-170 1.9176e-168 5.20909e-167 1.38545e-165 3.60652e-164 9.18528e-163 2.28788e-161 5.57102e-160 1.32561e-158 3.08094e-157 6.99098e-156 1.54801e-154 3.34325e-153 7.03882e-152 1.44386e-150 2.884e-149 5.60593e-148 1.05975e-146 1.94705e-145 3.47423e-144 6.01622e-143 1.01026e-141 1.6437e-140 2.58889e-139 3.94361e-138 5.80411e-137 8.2447e-136 1.12907e-134 1.48884e-133 1.88796e-132 2.29904e-131 2.68447e-130 3.00071e-129 3.20536e-128 3.2658e-127 3.16706e-126 2.91667e-125 2.54446e-124 2.09694e-123 1.62753e-122 1.18563e-121 8.07605e-121 5.12181e-120 3.00972e-119 1.62977e-118 8.08165e-118 3.64345e-117 1.48097e-116 5.37534e-116 1.7228e-115 4.81359e-115 1.15584e-114 2.34981e-114 3.992e-114 5.6342e-114 6.67222e-114 6.84124e-114 6.36302e-114 5.67116e-114 5.05078e-114 4.51709e-114 3.99637e-114 3.46434e-114 2.94918e-114 2.57003e-114 2.46414e-114 2.6887e-114 3.27839e-114 4.28394e-114 5.58565e-114 6.81628e-114 7.62856e-114 7.9306e-114 7.8215e-114 7.40158e-114 6.79159e-114 6.20589e-114 5.82913e-114 5.63319e-114 5.45766e-114 5.31905e-114 5.46143e-114 5.9848e-114 6.67916e-114 7.23498e-114 7.48067e-114 7.43257e-114 7.29569e-114 7.29697e-114 7.52167e-114 7.95804e-114 8.50693e-114 8.84945e-114 8.64486e-114 7.87829e-114 6.91304e-114 6.16652e-114 5.72417e-114 5.40957e-114 5.10552e-114 4.88238e-114 4.81538e-114 4.77744e-114 4.55697e-114 4.12704e-114 3.59596e-114 3.09607e-114 2.83503e-114 3.01481e-114 3.66092e-114 4.53012e-114 5.21063e-114 5.4514e-114 5.36337e-114 5.18564e-114 5.02231e-114 4.88522e-114 4.83114e-114 4.84531e-114 4.77794e-114 4.54005e-114 4.23735e-114 4.124e-114 4.38448e-114 5.00874e-114 5.76443e-114 6.31981e-114 6.54752e-114 6.54404e-114 6.3515e-114 5.90673e-114 5.233e-114 4.50686e-114 3.93712e-114 3.68778e-114 3.79509e-114 4.1857e-114 4.77332e-114 5.53619e-114 6.51099e-114 7.66199e-114 8.77237e-114 9.52603e-114 9.74218e-114 9.42913e-114 8.70872e-114 7.85835e-114 7.22261e-114 6.9287e-114 6.76012e-114 6.33499e-114 5.48797e-114 4.38802e-114 3.28416e-114 2.28137e-114 1.42229e-114 7.72208e-115 3.60588e-115 1.45013e-115 5.06384e-116 1.55164e-116 4.21649e-117 1.02621e-117 2.25675e-118 4.51928e-119 8.29782e-120 1.40533e-120 2.20703e-121 3.22915e-122 4.42001e-123 5.68102e-124 6.87929e-125 7.87186e-126 8.53505e-127 8.79024e-128 8.6186e-129 8.06137e-130 7.2067e-131 6.16845e-132 5.0632e-133 3.99146e-134 3.02619e-135 2.20942e-136 1.55525e-137 1.0567e-138 6.93725e-140 4.40493e-141 2.70777e-142 1.61281e-143 9.31575e-145 5.22219e-146 2.84321e-147 1.5045e-148 7.74273e-150 3.87782e-151 1.89119e-152 8.9864e-154 4.16273e-155 1.88079e-156 8.29252e-158 3.56966e-159 1.50092e-160 6.167e-162 2.47716e-163 9.73139e-165 3.74029e-166 1.40704e-167 5.18243e-169 1.86727e-170 0 
0 9.61133e-241 5.39994e-239 2.99508e-237 1.64033e-235 8.8698e-234 4.73492e-232 2.49507e-230 1.29771e-228 6.66112e-227 3.37401e-225 1.68626e-223 8.3144e-222 4.04402e-220 1.94007e-218 9.17889e-217 4.28228e-215 1.96977e-213 8.93203e-212 3.99229e-210 1.7586e-208 7.6335e-207 3.26457e-205 1.37533e-203 5.70689e-202 2.33202e-200 9.38278e-199 3.71642e-197 1.44889e-195 5.55886e-194 2.09842e-192 7.79248e-191 2.84608e-189 1.02216e-187 3.60914e-186 1.25258e-184 4.27193e-183 1.43141e-181 4.71112e-180 1.52263e-178 4.83135e-177 1.50464e-175 4.59797e-174 1.37833e-172 4.05194e-171 1.16781e-169 3.29867e-168 9.12914e-167 2.47456e-165 6.56737e-164 1.70591e-162 4.33541e-161 1.07756e-159 2.6183e-158 6.21695e-157 1.44186e-155 3.26484e-154 7.21407e-153 1.55476e-151 3.26651e-150 6.68654e-149 1.3328e-147 2.58532e-146 4.87721e-145 8.94223e-144 1.59232e-142 2.75172e-141 4.61129e-140 7.4873e-139 1.17687e-137 1.78908e-136 2.62779e-135 3.72524e-134 5.09129e-133 6.70015e-132 8.47932e-131 1.03051e-129 1.20089e-128 1.33971e-127 1.42827e-126 1.45236e-125 1.40571e-124 1.29207e-123 1.12502e-122 9.25376e-122 7.16864e-121 5.21242e-120 3.54387e-119 2.24337e-118 1.31586e-117 7.11262e-117 3.52075e-116 1.58452e-115 6.42987e-115 2.33002e-114 7.45629e-114 2.08036e-113 4.98898e-113 1.01317e-112 1.71987e-112 2.42624e-112 2.87283e-112 2.94578e-112 2.74021e-112 2.44239e-112 2.17502e-112 1.94499e-112 1.72071e-112 1.49169e-112 1.27011e-112 1.10714e-112 1.06169e-112 1.15852e-112 1.41266e-112 1.84567e-112 2.40582e-112 2.93537e-112 3.28509e-112 3.41529e-112 3.36832e-112 3.18745e-112 2.92489e-112 2.67285e-112 2.51063e-112 2.42621e-112 2.35089e-112 2.29174e-112 2.35324e-112 2.57823e-112 2.8767e-112 3.11573e-112 3.2215e-112 3.20106e-112 3.14244e-112 3.14316e-112 3.24005e-112 3.42805e-112 3.66418e-112 3.81136e-112 3.72334e-112 3.39375e-112 2.97848e-112 2.65671e-112 2.46546e-112 2.32942e-112 2.19839e-112 2.10238e-112 2.07339e-112 2.0568e-112 1.96187e-112 1.77686e-112 1.54824e-112 1.33314e-112 1.22094e-112 1.29841e-112 1.57641e-112 1.95024e-112 2.24301e-112 2.3469e-112 2.30932e-112 2.2329e-112 2.16258e-112 2.1037e-112 2.08052e-112 2.08648e-112 2.05734e-112 1.95499e-112 1.82491e-112 1.77632e-112 1.88856e-112 2.15723e-112 2.48232e-112 2.72138e-112 2.81962e-112 2.8182e-112 2.73521e-112 2.54369e-112 2.25375e-112 1.94125e-112 1.69599e-112 1.58845e-112 1.63433e-112 1.80229e-112 2.05532e-112 2.38407e-112 2.80411e-112 3.2998e-112 3.77781e-112 4.1023e-112 4.19546e-112 4.06077e-112 3.75085e-112 3.38505e-112 3.11138e-112 2.9844e-112 2.91114e-112 2.7277e-112 2.36301e-112 1.88946e-112 1.41404e-112 9.82202e-113 6.12454e-113 3.32707e-113 1.555e-113 6.26078e-114 2.18921e-114 6.71808e-115 1.8285e-115 4.45762e-116 9.81962e-117 1.96991e-117 3.62345e-118 6.14794e-119 9.67307e-120 1.41794e-120 1.94453e-121 2.50408e-122 3.03808e-123 3.48316e-124 3.78397e-125 3.90474e-126 3.83604e-127 3.59512e-128 3.22035e-129 2.76191e-130 2.27158e-131 1.79435e-132 1.36316e-133 9.97261e-135 7.03417e-136 4.78903e-137 3.15044e-138 2.00454e-139 1.23475e-140 7.36967e-142 4.2656e-143 2.39616e-144 1.3073e-145 6.93211e-147 3.57499e-148 1.79423e-149 8.7688e-151 4.17548e-152 1.93828e-153 8.77605e-155 3.87765e-156 1.67276e-157 7.04847e-159 2.90228e-160 1.16829e-161 4.59947e-163 1.77164e-164 6.67906e-166 2.46538e-167 8.90224e-169 0 