# vtk DataFile Version 3.0
Gray-Scott Simulation Output
ASCII
DATASET STRUCTURED_POINTS
DIMENSIONS 256 256 1
SPACING 1.0 1.0 1.0
ORIGIN 0 0 0
POINT_DATA 65536
SCALARS u double
LOOKUP_TABLE default
0 0 0 0 0 0 0 0 0 0 0 0 0 0 0 0 0 0 0 0 0 0 0 0 0 0 0 0 0 0 0 0 0 0 0 0 0 0 0 0 0 0 0 0 0 0 0 0 0 0 0 0 0 0 0 0 0 0 0 0 0 0 0 0 0 0 0 0 0 0 0 0 0 0 0 0 0 0 0 0 0 0 0 0 0 0 0 0 0 0 0 0 0 0 0 0 0 0 0 0 0 0 0 0 0 0 0 0 0 0 0 0 0 0 0 0 0 0 0 0 0 0 0 0 0 0 0 0 0 0 0 0 0 0 0 0 0 0 0 0 0 0 0 0 0 0 0 0 0 0 0 0 0 0 0 0 0 0 0 0 0 0 0 0 0 0 0 0 0 0 0 0 0 0 0 0 0 0 0 0 0 0 0 0 0 0 0 0 0 0 0 0 0 0 0 0 0 0 0 0 0 0 0 0 0 0 0 0 0 0 0 0 0 0 0 0 0 0 0 0 0 0 0 0 0 0 0 0 0 0 0 0 0 0 0 0 0 0 0 0 0 0 0 0 0 0 0 0 0 0 0 0 0 0 0 0 
0 8.99378e-75 3.00891e-74 9.11614e-74 2.71519e-73 8.01533e-73 2.3471e-72 6.81787e-72 1.96451e-71 5.61472e-71 1.59164e-70 4.47489e-70 1.24772e-69 3.45004e-69 9.45979e-69 2.57195e-68 6.93336e-68 1.8531e-67 4.91027e-67 1.28984e-66 3.35863e-66 8.66885e-66 2.21772e-65 5.62302e-65 1.41294e-64 3.51838e-64 8.68155e-64 2.12256e-63 5.14163e-63 1.23394e-62 2.93363e-62 6.90892e-62 1.61167e-61 3.7237e-61 8.52066e-61 1.93082e-60 4.33261e-60 9.62641e-60 2.11765e-59 4.61196e-59 9.94323e-59 2.122e-58 4.48238e-58 9.37088e-58 1.93878e-57 3.96932e-57 8.04102e-57 1.61168e-56 3.19581e-56 6.2688e-56 1.21633e-55 2.33426e-55 4.43037e-55 8.31546e-55 1.54331e-54 2.83205e-54 5.13803e-54 9.21513e-54 1.63372e-53 2.86281e-53 4.95798e-53 8.48557e-53 1.4351e-52 2.39815e-52 3.95936e-52 6.45793e-52 1.04051e-51 1.65597e-51 2.60302e-51 4.04099e-51 6.19517e-51 9.37872e-51 1.40194e-50 2.06911e-50 3.01495e-50 4.33706e-50 6.15895e-50 8.63364e-50 1.19465e-49 1.63166e-49 2.19965e-49 2.92686e-49 3.84387e-49 4.9826e-49 6.37482e-49 8.05032e-49 1.00348e-48 1.23474e-48 1.49984e-48 1.79868e-48 2.12987e-48 2.49056e-48 2.87647e-48 3.2819e-48 3.69993e-48 4.12273e-48 4.54188e-48 4.94889e-48 5.33564e-48 5.69487e-48 6.02063e-48 6.3086e-48 6.5563e-48 6.76321e-48 6.93067e-48 7.06171e-48 7.1607e-48 7.23296e-48 7.28435e-48 7.32079e-48 7.34787e-48 7.37055e-48 7.3929e-48 7.41796e-48 7.44774e-48 7.48329e-48 7.5248e-48 7.57181e-48 7.6234e-48 7.67842e-48 7.73561e-48 7.79375e-48 7.85177e-48 7.90877e-48 7.96397e-48 8.01675e-48 8.06652e-48 8.11267e-48 8.15453e-48 8.1913e-48 8.22206e-48 8.24571e-48 8.26111e-48 8.26704e-48 8.26236e-48 8.24606e-48 8.21736e-48 8.17582e-48 8.12139e-48 8.05446e-48 7.97592e-48 7.88712e-48 7.78984e-48 7.68625e-48 7.57879e-48 7.47007e-48 7.36276e-48 7.25946e-48 7.16258e-48 7.0742e-48 6.99603e-48 6.92933e-48 6.87486e-48 6.83288e-48 6.8032e-48 6.78521e-48 6.77797e-48 6.7803e-48 6.79085e-48 6.80824e-48 6.83109e-48 6.85812e-48 6.88819e-48 6.92035e-48 6.95382e-48 6.98801e-48 7.02252e-48 7.05713e-48 7.09176e-48 7.1265e-48 7.16155e-48 7.19728e-48 7.23413e-48 7.27266e-48 7.31345e-48 7.35711e-48 7.40412e-48 7.45483e-48 7.5093e-48 7.56723e-48 7.62784e-48 7.68983e-48 7.75127e-48 7.80965e-48 7.86187e-48 7.9043e-48 7.9329e-48 7.94339e-48 7.93136e-48 7.89256e-48 7.82303e-48 7.71936e-48 7.57886e-48 7.39976e-48 7.18134e-48 6.92402e-48 6.62944e-48 6.30043e-48 5.94096e-48 5.55599e-48 5.15135e-48 4.73345e-48 4.30908e-48 3.88508e-48 3.46812e-48 3.06439e-48 2.67937e-48 2.3177e-48 1.98298e-48 1.67774e-48 1.40345e-48 1.16054e-48 9.48524e-49 7.66129e-49 6.11462e-49 4.82175e-49 3.75638e-49 2.89089e-49 2.19766e-49 1.65021e-49 1.2239e-49 8.9654e-50 6.48639e-50 4.63491e-50 3.27103e-50 2.28001e-50 1.56964e-50 1.06731e-50 7.16824e-51 4.75538e-51 3.11619e-51 2.01719e-51 1.28995e-51 8.14944e-52 5.08666e-52 3.13699e-52 1.91159e-52 1.15108e-52 6.84977e-53 4.0284e-53 2.34156e-53 1.34532e-53 7.64056e-54 4.28978e-54 2.38115e-54 1.30682e-54 7.0917e-55 3.8056e-55 2.01957e-55 1.05988e-55 5.49912e-56 2.81693e-56 1.41604e-56 6.80203e-57 2.72876e-57 0 
0 3.00962e-74 1.00708e-73 3.05188e-73 9.09212e-73 2.68471e-72 7.86359e-72 2.28483e-71 6.58534e-71 1.88266e-70 5.33842e-70 1.50133e-69 4.18734e-69 1.15818e-68 3.17663e-68 8.63941e-68 2.32972e-67 6.22875e-67 1.65101e-66 4.33836e-66 1.13006e-65 2.91779e-65 7.46713e-65 1.89397e-64 4.76089e-64 1.18596e-63 2.92744e-63 7.16009e-63 1.73512e-62 4.16577e-62 9.90794e-62 2.33435e-61 5.4477e-61 1.2592e-60 2.88256e-60 6.53483e-60 1.467e-59 3.2609e-59 7.17664e-59 1.56368e-58 3.37279e-58 7.20124e-58 1.52185e-57 3.18306e-57 6.58865e-57 1.34955e-56 2.73522e-56 5.48486e-56 1.08812e-55 2.13544e-55 4.14539e-55 7.95924e-55 1.51137e-54 2.83808e-54 5.26984e-54 9.67504e-54 1.75612e-53 3.15109e-53 5.58908e-53 9.79836e-53 1.69771e-52 2.90692e-52 4.91842e-52 8.22253e-52 1.35812e-51 2.21607e-51 3.57199e-51 5.68702e-51 8.94275e-51 1.38879e-50 2.12986e-50 3.2254e-50 4.82286e-50 7.12009e-50 1.03777e-49 1.49322e-49 2.12097e-49 2.97379e-49 4.11563e-49 5.62205e-49 7.58008e-49 1.00871e-48 1.32485e-48 1.7174e-48 2.19729e-48 2.77476e-48 3.45858e-48 4.25527e-48 5.16824e-48 6.19702e-48 7.3366e-48 8.57702e-48 9.90327e-48 1.12955e-47 1.27297e-47 1.41786e-47 1.56132e-47 1.7004e-47 1.83231e-47 1.95455e-47 2.06508e-47 2.16243e-47 2.24577e-47 2.31496e-47 2.37049e-47 2.41344e-47 2.44535e-47 2.46808e-47 2.48368e-47 2.4942e-47 2.50161e-47 2.50761e-47 2.51362e-47 2.52068e-47 2.52949e-47 2.54041e-47 2.55349e-47 2.56857e-47 2.58533e-47 2.60337e-47 2.62223e-47 2.64151e-47 2.66081e-47 2.67982e-47 2.69828e-47 2.71596e-47 2.73265e-47 2.74815e-47 2.76223e-47 2.77462e-47 2.78498e-47 2.79297e-47 2.79819e-47 2.80022e-47 2.79868e-47 2.79322e-47 2.78358e-47 2.76961e-47 2.7513e-47 2.72876e-47 2.7023e-47 2.67238e-47 2.6396e-47 2.60468e-47 2.56846e-47 2.53181e-47 2.49564e-47 2.46082e-47 2.42817e-47 2.39839e-47 2.37205e-47 2.34959e-47 2.33125e-47 2.31712e-47 2.30714e-47 2.3011e-47 2.29868e-47 2.29948e-47 2.30305e-47 2.30892e-47 2.31661e-47 2.32571e-47 2.33583e-47 2.34665e-47 2.3579e-47 2.36939e-47 2.38098e-47 2.39261e-47 2.40425e-47 2.41592e-47 2.4277e-47 2.43972e-47 2.45212e-47 2.4651e-47 2.47885e-47 2.49359e-47 2.50948e-47 2.52665e-47 2.54513e-47 2.56481e-47 2.58544e-47 2.6066e-47 2.62763e-47 2.6477e-47 2.66576e-47 2.68059e-47 2.69082e-47 2.695e-47 2.69163e-47 2.67927e-47 2.65655e-47 2.6223e-47 2.57559e-47 2.51578e-47 2.44261e-47 2.35618e-47 2.25703e-47 2.14608e-47 2.02465e-47 1.89442e-47 1.75734e-47 1.6156e-47 1.47148e-47 1.32734e-47 1.18544e-47 1.04792e-47 9.16653e-48 7.93246e-48 6.78948e-48 5.74647e-48 4.8086e-48 3.97755e-48 3.2518e-48 2.62716e-48 2.09724e-48 1.65412e-48 1.28885e-48 9.92023e-49 7.54219e-49 5.66379e-49 4.20083e-49 3.07729e-49 2.22639e-49 1.59084e-49 1.12265e-49 7.82462e-50 5.38623e-50 3.66201e-50 2.45913e-50 1.63111e-50 1.06866e-50 6.91634e-51 4.42191e-51 2.79294e-51 1.74284e-51 1.07455e-51 6.54616e-52 3.94069e-52 2.34429e-52 1.37826e-52 8.00874e-53 4.59982e-53 2.61151e-53 1.46572e-53 8.13297e-54 4.4619e-54 2.42045e-54 1.2984e-54 6.8878e-55 3.61336e-55 1.87406e-55 9.59626e-56 4.82217e-56 2.31561e-56 9.28725e-57 0 
0 9.12088e-74 3.05275e-73 9.25377e-73 2.7577e-72 8.14541e-72 2.38657e-71 6.93661e-71 1.99993e-70 5.71946e-70 1.62235e-69 4.56414e-69 1.27344e-68 3.5235e-68 9.66775e-68 2.63031e-67 7.09568e-67 1.89785e-66 5.03252e-66 1.32294e-65 3.44743e-65 8.90494e-65 2.27991e-64 5.78532e-64 1.45491e-63 3.62588e-63 8.95431e-63 2.19111e-62 5.3123e-62 1.27602e-61 3.03639e-61 7.15739e-61 1.67117e-60 3.86475e-60 8.85176e-60 2.00776e-59 4.50961e-59 1.00295e-58 2.20849e-58 4.8146e-58 1.03906e-57 2.21972e-57 4.69359e-57 9.82256e-57 2.03434e-56 4.16931e-56 8.45504e-56 1.69644e-55 3.36745e-55 6.61249e-55 1.28438e-54 2.46747e-54 4.68816e-54 8.80863e-54 1.63656e-53 3.00633e-53 5.45989e-53 9.80253e-53 1.73964e-52 3.0515e-52 5.29006e-52 9.06284e-52 1.53422e-51 2.56621e-51 4.24076e-51 6.92318e-51 1.11646e-50 1.77836e-50 2.7977e-50 4.34665e-50 6.66883e-50 1.01031e-49 1.51125e-49 2.23187e-49 3.25406e-49 4.68362e-49 6.65444e-49 9.33246e-49 1.29186e-48 1.76505e-48 2.38015e-48 3.16775e-48 4.16091e-48 5.39408e-48 6.90147e-48 8.71502e-48 1.08621e-47 1.33628e-47 1.62274e-47 1.94539e-47 2.30258e-47 2.69112e-47 3.10621e-47 3.54153e-47 3.98947e-47 4.44141e-47 4.88815e-47 5.32044e-47 5.72947e-47 6.10745e-47 6.44799e-47 6.74658e-47 7.0007e-47 7.21001e-47 7.3762e-47 7.50276e-47 7.59466e-47 7.65789e-47 7.69895e-47 7.72442e-47 7.74046e-47 7.75252e-47 7.76503e-47 7.78133e-47 7.80358e-47 7.83287e-47 7.8694e-47 7.9126e-47 7.96146e-47 8.01465e-47 8.07076e-47 8.12844e-47 8.18648e-47 8.24386e-47 8.29971e-47 8.35332e-47 8.40405e-47 8.45123e-47 8.49415e-47 8.53195e-47 8.56365e-47 8.58812e-47 8.60415e-47 8.61048e-47 8.60591e-47 8.58936e-47 8.56004e-47 8.51747e-47 8.46157e-47 8.39277e-47 8.31196e-47 8.22054e-47 8.12034e-47 8.01362e-47 7.90288e-47 7.79084e-47 7.68026e-47 7.57383e-47 7.47402e-47 7.38301e-47 7.30255e-47 7.23394e-47 7.17796e-47 7.13486e-47 7.10444e-47 7.08607e-47 7.07876e-47 7.08127e-47 7.09222e-47 7.11016e-47 7.13367e-47 7.16145e-47 7.19231e-47 7.22527e-47 7.25955e-47 7.29455e-47 7.32986e-47 7.36526e-47 7.40069e-47 7.43623e-47 7.47214e-47 7.50876e-47 7.54661e-47 7.58624e-47 7.62832e-47 7.67346e-47 7.72222e-47 7.775e-47 7.83189e-47 7.89264e-47 7.9565e-47 8.02215e-47 8.08768e-47 8.15051e-47 8.20746e-47 8.25479e-47 8.28831e-47 8.30354e-47 8.29587e-47 8.26079e-47 8.19408e-47 8.09204e-47 7.95173e-47 7.77109e-47 7.54917e-47 7.28621e-47 6.9837e-47 6.64441e-47 6.27231e-47 5.87249e-47 5.45093e-47 5.01433e-47 4.5698e-47 4.12459e-47 3.68576e-47 3.25996e-47 2.85311e-47 2.47023e-47 2.11529e-47 1.79112e-47 1.4994e-47 1.24072e-47 1.01468e-47 8.20016e-48 6.54787e-48 5.16557e-48 4.02567e-48 3.09903e-48 2.35643e-48 1.76972e-48 1.31268e-48 9.61616e-49 6.95714e-49 4.97096e-49 3.50777e-49 2.4446e-49 1.68258e-49 1.14379e-49 7.67948e-50 5.09269e-50 3.33588e-50 2.15845e-50 1.37962e-50 8.71144e-51 5.43445e-51 3.34953e-51 2.03986e-51 1.22754e-51 7.29987e-52 4.29014e-52 2.49193e-52 1.43067e-52 8.11918e-53 4.555e-53 2.52639e-53 1.38542e-53 7.51218e-54 4.02794e-54 2.13579e-54 1.11993e-54 5.80583e-55 2.97156e-55 1.49257e-55 7.16448e-56 2.87264e-56 0 
0 2.7174e-73 9.09737e-73 2.75851e-72 8.22319e-72 2.42967e-71 7.12121e-71 2.0705e-70 5.97164e-70 1.70839e-69 4.84768e-69 1.3643e-68 3.80795e-68 1.05403e-67 2.89318e-67 7.87465e-67 2.12518e-66 5.68648e-66 1.50852e-65 3.96726e-65 1.03428e-64 2.67281e-64 6.84622e-64 1.73805e-63 4.37294e-63 1.09033e-62 2.69394e-62 6.59531e-62 1.59982e-61 3.84472e-61 9.15356e-61 2.15881e-60 5.04325e-60 1.16693e-59 2.67418e-59 6.06894e-59 1.3639e-58 3.03505e-58 6.68699e-58 1.45863e-57 3.14976e-57 6.73274e-57 1.42448e-56 2.98286e-56 6.18147e-56 1.26764e-55 2.57223e-55 5.16415e-55 1.02571e-54 2.01538e-54 3.91698e-54 7.52967e-54 1.4315e-53 2.69131e-53 5.00325e-53 9.19644e-53 1.6712e-52 3.00222e-52 5.33117e-52 9.35686e-52 1.62304e-51 2.78214e-51 4.71242e-51 7.88657e-51 1.30398e-50 2.12991e-50 3.43652e-50 5.47658e-50 8.61981e-50 1.33983e-49 2.05654e-49 3.11689e-49 4.66418e-49 6.89081e-49 1.00503e-48 1.44701e-48 2.0565e-48 2.88488e-48 3.99438e-48 5.45854e-48 7.36201e-48 9.7994e-48 1.2873e-47 1.66891e-47 2.13533e-47 2.69638e-47 3.36045e-47 4.13366e-47 5.01902e-47 6.01573e-47 7.1185e-47 8.31718e-47 9.59669e-47 1.09372e-46 1.23149e-46 1.3703e-46 1.50727e-46 1.63954e-46 1.76438e-46 1.87939e-46 1.98261e-46 2.07266e-46 2.1488e-46 2.21097e-46 2.25971e-46 2.29617e-46 2.32192e-46 2.33884e-46 2.34898e-46 2.35441e-46 2.35704e-46 2.35858e-46 2.36041e-46 2.36356e-46 2.3687e-46 2.37617e-46 2.386e-46 2.39804e-46 2.41194e-46 2.42729e-46 2.44365e-46 2.46058e-46 2.47771e-46 2.49472e-46 2.51132e-46 2.5273e-46 2.54245e-46 2.55657e-46 2.56943e-46 2.58077e-46 2.59031e-46 2.59768e-46 2.60253e-46 2.60447e-46 2.60313e-46 2.59821e-46 2.58943e-46 2.57668e-46 2.55991e-46 2.53925e-46 2.51498e-46 2.48751e-46 2.4574e-46 2.42531e-46 2.39202e-46 2.35834e-46 2.32509e-46 2.2931e-46 2.2631e-46 2.23575e-46 2.21158e-46 2.19097e-46 2.17417e-46 2.16124e-46 2.15212e-46 2.14663e-46 2.14445e-46 2.14523e-46 2.14853e-46 2.15393e-46 2.161e-46 2.16933e-46 2.17859e-46 2.18847e-46 2.19873e-46 2.20921e-46 2.21979e-46 2.23038e-46 2.24099e-46 2.25163e-46 2.26239e-46 2.27337e-46 2.28472e-46 2.29663e-46 2.30928e-46 2.32288e-46 2.3376e-46 2.35356e-46 2.3708e-46 2.38926e-46 2.40871e-46 2.42877e-46 2.44887e-46 2.46824e-46 2.48593e-46 2.50081e-46 2.51162e-46 2.517e-46 2.51556e-46 2.50591e-46 2.48677e-46 2.45698e-46 2.41562e-46 2.36205e-46 2.29594e-46 2.21732e-46 2.1266e-46 2.02459e-46 1.91246e-46 1.79174e-46 1.66421e-46 1.53192e-46 1.39701e-46 1.26169e-46 1.12814e-46 9.98396e-47 8.74281e-47 7.57355e-47 6.48854e-47 5.4967e-47 4.60342e-47 3.81073e-47 3.11757e-47 2.52027e-47 2.01301e-47 1.58843e-47 1.23816e-47 9.53314e-48 7.24973e-48 5.44518e-48 4.03916e-48 2.95901e-48 2.14078e-48 1.52955e-48 1.07925e-48 7.52065e-49 5.17568e-49 3.51778e-49 2.36143e-49 1.56567e-49 1.02533e-49 6.63255e-50 4.23817e-50 2.67534e-50 1.66843e-50 1.02799e-50 6.25824e-51 3.76466e-51 2.23789e-51 1.31469e-51 7.63325e-52 4.38055e-52 2.48493e-52 1.39347e-52 7.72528e-53 4.23444e-53 2.29497e-53 1.22995e-53 6.51863e-54 3.41649e-54 1.77028e-54 9.05635e-55 4.54674e-55 2.18158e-55 8.74452e-56 0 
0 8.02425e-73 2.68706e-72 8.15023e-72 2.4304e-71 7.18341e-71 2.10613e-70 6.12572e-70 1.76738e-69 5.05805e-69 1.43579e-68 4.04233e-68 1.12871e-67 3.12548e-67 8.58247e-67 2.33693e-66 6.30946e-66 1.68898e-65 4.48251e-65 1.17938e-64 3.07607e-64 7.95289e-64 2.03803e-63 5.17641e-63 1.30302e-62 3.25049e-62 8.03517e-62 1.96817e-61 4.77662e-61 1.14853e-60 2.73589e-60 6.4559e-60 1.509e-59 3.49354e-59 8.01038e-59 1.81896e-58 4.09016e-58 9.10703e-58 2.00769e-57 4.38198e-57 9.46807e-57 2.02506e-56 4.28713e-56 8.9828e-56 1.86268e-55 3.8222e-55 7.76067e-55 1.55905e-54 3.09857e-54 6.09208e-54 1.18477e-53 2.27895e-53 4.33536e-53 8.15587e-53 1.51716e-52 2.79043e-52 5.07399e-52 9.12076e-52 1.6206e-51 2.84607e-51 4.93972e-51 8.47243e-51 1.4359e-50 2.40444e-50 3.97776e-50 6.50072e-50 1.04941e-49 1.67324e-49 2.63487e-49 4.0975e-49 6.29216e-49 9.54052e-49 1.42825e-48 2.11089e-48 3.07983e-48 4.43573e-48 6.306e-48 8.84852e-48 1.22545e-47 1.675e-47 2.25948e-47 3.00796e-47 3.95179e-47 5.12359e-47 6.55564e-47 8.27794e-47 1.0316e-46 1.26881e-46 1.54033e-46 1.84584e-46 2.18365e-46 2.55057e-46 2.94188e-46 3.35143e-46 3.77182e-46 4.19472e-46 4.61131e-46 5.01273e-46 5.39062e-46 5.7376e-46 6.04773e-46 6.31686e-46 6.54283e-46 6.72552e-46 6.8668e-46 6.97027e-46 7.04089e-46 7.08457e-46 7.10771e-46 7.11669e-46 7.11752e-46 7.11543e-46 7.1147e-46 7.11849e-46 7.12885e-46 7.1468e-46 7.17246e-46 7.20527e-46 7.24418e-46 7.2879e-46 7.33501e-46 7.38419e-46 7.43424e-46 7.48412e-46 7.53301e-46 7.58019e-46 7.62501e-46 7.66687e-46 7.70507e-46 7.73882e-46 7.76723e-46 7.78926e-46 7.80379e-46 7.80968e-46 7.80584e-46 7.79129e-46 7.76529e-46 7.72739e-46 7.67753e-46 7.61606e-46 7.5438e-46 7.46199e-46 7.37228e-46 7.27669e-46 7.17748e-46 7.07711e-46 6.97804e-46 6.8827e-46 6.79332e-46 6.71185e-46 6.63987e-46 6.57854e-46 6.52854e-46 6.4901e-46 6.46303e-46 6.44674e-46 6.44034e-46 6.44271e-46 6.4526e-46 6.4687e-46 6.48973e-46 6.51453e-46 6.54204e-46 6.57138e-46 6.60187e-46 6.63297e-46 6.66433e-46 6.69577e-46 6.72724e-46 6.75883e-46 6.79076e-46 6.82338e-46 6.85715e-46 6.8926e-46 6.93034e-46 6.97096e-46 7.015e-46 7.06286e-46 7.11467e-46 7.17026e-46 7.22902e-46 7.28981e-46 7.35097e-46 7.41022e-46 7.46473e-46 7.51115e-46 7.5457e-46 7.5643e-46 7.56275e-46 7.53686e-46 7.48272e-46 7.3968e-46 7.27625e-46 7.11901e-46 6.92398e-46 6.69113e-46 6.4216e-46 6.11768e-46 5.78283e-46 5.42151e-46 5.03911e-46 4.64168e-46 4.23573e-46 3.82795e-46 3.42491e-46 3.03285e-46 2.65736e-46 2.30322e-46 1.97426e-46 1.67327e-46 1.40197e-46 1.16102e-46 9.50179e-47 7.68381e-47 6.13903e-47 4.8454e-47 3.7777e-47 2.90912e-47 2.21261e-47 1.66202e-47 1.23294e-47 9.03247e-48 6.53473e-48 4.66875e-48 3.29403e-48 2.29517e-48 1.57931e-48 1.07324e-48 7.20313e-49 4.77477e-49 3.12615e-49 2.02169e-49 1.29148e-49 8.14992e-50 5.08088e-50 3.12947e-50 1.90448e-50 1.14521e-50 6.80497e-51 3.99606e-51 2.31918e-51 1.33035e-51 7.54322e-52 4.22808e-52 2.34292e-52 1.28361e-52 6.95353e-53 3.72482e-53 1.97315e-53 1.03363e-53 5.35319e-54 2.73721e-54 1.37356e-54 6.58768e-55 2.63974e-55 0 
0 2.35041e-72 7.87282e-72 2.38869e-71 7.12545e-71 2.10675e-70 6.17902e-70 1.79783e-69 5.18895e-69 1.48557e-68 4.21858e-68 1.18816e-67 3.31892e-67 9.19406e-67 2.52571e-66 6.88016e-66 1.85836e-65 4.97684e-65 1.32142e-64 3.47834e-64 9.07643e-64 2.34772e-63 6.01923e-63 1.52957e-62 3.85217e-62 9.61441e-62 2.37789e-61 5.82752e-61 1.41505e-60 3.40429e-60 8.11369e-60 1.91565e-59 4.48015e-59 1.0378e-58 2.38096e-58 5.40971e-58 1.21716e-57 2.71171e-57 5.9817e-57 1.30636e-56 2.82436e-56 6.04459e-56 1.28046e-55 2.68464e-55 5.57042e-55 1.14377e-54 2.32383e-54 4.67138e-54 9.29025e-54 1.82773e-53 3.55684e-53 6.84614e-53 1.30322e-52 2.45326e-52 4.56652e-52 8.40434e-52 1.52918e-51 2.75053e-51 4.89027e-51 8.59354e-51 1.49243e-50 2.56131e-50 4.34345e-50 7.27741e-50 1.20462e-49 1.96976e-49 3.1815e-49 5.0754e-49 7.99634e-49 1.24411e-48 1.91137e-48 2.8994e-48 4.34232e-48 6.42028e-48 9.37081e-48 1.35009e-47 1.91993e-47 2.69479e-47 3.733e-47 5.10351e-47 6.8856e-47 9.16782e-47 1.20457e-46 1.56186e-46 1.99844e-46 2.52342e-46 3.14447e-46 3.86712e-46 4.6939e-46 5.62369e-46 6.65115e-46 7.7663e-46 8.95452e-46 1.01968e-45 1.14702e-45 1.27494e-45 1.40071e-45 1.52163e-45 1.63515e-45 1.73903e-45 1.83147e-45 1.91124e-45 1.9777e-45 2.03086e-45 2.07134e-45 2.10026e-45 2.11918e-45 2.12994e-45 2.13452e-45 2.13489e-45 2.1329e-45 2.13017e-45 2.12799e-45 2.12734e-45 2.12884e-45 2.13279e-45 2.13922e-45 2.14796e-45 2.15867e-45 2.17095e-45 2.18436e-45 2.1985e-45 2.21298e-45 2.22748e-45 2.24174e-45 2.25555e-45 2.2687e-45 2.28101e-45 2.29226e-45 2.30222e-45 2.31062e-45 2.31715e-45 2.32147e-45 2.32324e-45 2.32215e-45 2.31789e-45 2.31024e-45 2.29908e-45 2.28437e-45 2.26623e-45 2.24489e-45 2.22072e-45 2.19421e-45 2.16595e-45 2.13663e-45 2.10696e-45 2.07767e-45 2.04949e-45 2.02308e-45 1.99901e-45 1.97774e-45 1.95963e-45 1.94488e-45 1.93354e-45 1.92557e-45 1.92078e-45 1.91891e-45 1.91963e-45 1.92256e-45 1.92733e-45 1.93354e-45 1.94086e-45 1.94897e-45 1.95761e-45 1.96659e-45 1.97574e-45 1.98497e-45 1.99422e-45 2.00348e-45 2.01278e-45 2.02219e-45 2.0318e-45 2.04176e-45 2.05223e-45 2.0634e-45 2.07544e-45 2.08851e-45 2.10275e-45 2.1182e-45 2.13482e-45 2.15244e-45 2.17073e-45 2.1892e-45 2.20719e-45 2.22387e-45 2.23824e-45 2.24918e-45 2.25548e-45 2.25589e-45 2.24914e-45 2.23406e-45 2.20957e-45 2.17479e-45 2.12908e-45 2.07207e-45 2.00371e-45 1.92432e-45 1.83453e-45 1.73535e-45 1.62809e-45 1.51433e-45 1.39588e-45 1.27468e-45 1.15274e-45 1.03204e-45 9.14467e-46 8.01724e-46 6.9527e-46 5.96283e-46 5.05624e-46 4.23832e-46 3.51136e-46 2.87477e-46 2.32551e-46 1.85853e-46 1.46726e-46 1.14419e-46 8.81266e-47 6.7036e-47 5.03595e-47 3.73604e-47 2.73708e-47 1.98017e-47 1.41467e-47 9.98044e-48 6.95326e-48 4.78389e-48 3.25041e-48 2.1811e-48 1.44547e-48 9.46149e-49 6.1171e-49 3.90652e-49 2.46445e-49 1.53589e-49 9.45663e-50 5.7528e-50 3.45795e-50 2.05392e-50 1.20561e-50 6.99393e-51 4.01013e-51 2.27275e-51 1.27331e-51 7.05247e-52 3.86195e-52 2.09105e-52 1.11956e-52 5.92766e-53 3.10363e-53 1.60655e-53 8.21049e-54 4.11809e-54 1.97419e-54 7.90822e-55 0 
0 6.82956e-72 2.2882e-71 6.94487e-71 2.07235e-70 6.12939e-70 1.79837e-69 5.23437e-69 1.51132e-68 4.32849e-68 1.22964e-67 3.46465e-67 9.68181e-67 2.68316e-66 7.37402e-66 2.00959e-65 5.43036e-65 1.45494e-64 3.86484e-64 1.0178e-63 2.65712e-63 6.87624e-63 1.76383e-62 4.48437e-62 1.12995e-61 2.82162e-61 6.98223e-61 1.71206e-60 4.1595e-60 1.00123e-59 2.38763e-59 5.64041e-59 1.31988e-58 3.05921e-58 7.02269e-58 1.59656e-57 3.59435e-57 8.01272e-57 1.7686e-56 3.8649e-56 8.36124e-56 1.79058e-55 3.79552e-55 7.96289e-55 1.65332e-54 3.39697e-54 6.90625e-54 1.38922e-53 2.76465e-53 5.4427e-53 1.05988e-52 2.04139e-52 3.88854e-52 7.32489e-52 1.36436e-51 2.51266e-51 4.57483e-51 8.23404e-51 1.4649e-50 2.57587e-50 4.47631e-50 7.68698e-50 1.30435e-49 2.18672e-49 3.62175e-49 5.92556e-49 9.57611e-49 1.52848e-48 2.40939e-48 3.75053e-48 5.76478e-48 8.74872e-48 1.31083e-47 1.93889e-47 2.831e-47 4.08017e-47 5.80418e-47 8.14901e-47 1.12914e-46 1.54403e-46 2.08357e-46 2.77458e-46 3.64595e-46 4.72768e-46 6.04934e-46 7.63831e-46 9.5176e-46 1.17035e-45 1.42034e-45 1.70133e-45 2.01163e-45 2.34815e-45 2.70638e-45 3.08049e-45 3.4635e-45 3.8476e-45 4.22455e-45 4.58612e-45 4.92458e-45 5.23317e-45 5.50654e-45 5.74098e-45 5.9347e-45 6.08785e-45 6.20238e-45 6.28187e-45 6.33115e-45 6.35589e-45 6.36218e-45 6.35608e-45 6.34323e-45 6.32854e-45 6.31599e-45 6.30852e-45 6.30799e-45 6.31533e-45 6.33058e-45 6.35319e-45 6.38213e-45 6.41614e-45 6.45389e-45 6.49407e-45 6.53555e-45 6.57732e-45 6.61858e-45 6.65864e-45 6.6969e-45 6.73278e-45 6.76565e-45 6.7948e-45 6.81942e-45 6.8386e-45 6.85136e-45 6.85667e-45 6.85357e-45 6.84121e-45 6.81891e-45 6.78628e-45 6.74326e-45 6.69014e-45 6.62762e-45 6.55679e-45 6.47908e-45 6.39624e-45 6.31025e-45 6.22324e-45 6.13736e-45 6.05473e-45 5.97729e-45 5.90674e-45 5.84444e-45 5.79139e-45 5.74819e-45 5.71503e-45 5.69173e-45 5.67777e-45 5.67236e-45 5.67453e-45 5.68316e-45 5.69714e-45 5.71535e-45 5.73676e-45 5.76048e-45 5.78574e-45 5.81196e-45 5.83869e-45 5.86563e-45 5.89263e-45 5.91966e-45 5.9468e-45 5.97427e-45 6.00238e-45 6.03153e-45 6.06221e-45 6.09498e-45 6.13038e-45 6.1689e-45 6.21094e-45 6.25667e-45 6.30599e-45 6.35842e-45 6.41302e-45 6.46841e-45 6.52264e-45 6.57328e-45 6.61744e-45 6.6518e-45 6.6728e-45 6.67669e-45 6.65975e-45 6.6184e-45 6.54944e-45 6.45016e-45 6.31856e-45 6.15345e-45 5.95457e-45 5.72271e-45 5.45967e-45 5.16831e-45 4.85244e-45 4.51672e-45 4.16645e-45 3.8074e-45 3.44556e-45 3.08686e-45 2.73696e-45 2.40099e-45 2.08339e-45 1.78774e-45 1.51669e-45 1.27193e-45 1.05422e-45 8.63422e-46 6.98692e-46 5.58554e-46 4.41079e-46 3.44033e-46 2.65024e-46 2.01625e-46 1.51482e-46 1.12387e-46 8.23381e-47 5.95676e-47 4.25543e-47 3.00193e-47 2.09117e-47 1.43853e-47 9.77242e-48 6.55619e-48 4.34396e-48 2.84266e-48 1.83734e-48 1.17301e-48 7.39761e-49 4.60872e-49 2.83661e-49 1.72495e-49 1.03643e-49 6.15356e-50 3.61046e-50 2.09355e-50 1.19984e-50 6.79692e-51 3.80616e-51 2.10709e-51 1.15327e-51 6.24124e-52 3.33989e-52 1.76743e-52 9.24917e-53 4.7852e-53 2.44427e-53 1.22534e-53 5.8716e-54 2.35127e-54 0 
0 1.96848e-71 6.59706e-71 2.00292e-70 5.97879e-70 1.76897e-69 5.19207e-69 1.51178e-68 4.36664e-68 1.25111e-67 3.55557e-67 1.00223e-66 2.80183e-66 7.7681e-66 2.1358e-65 5.82308e-65 1.57423e-64 4.21972e-64 1.12143e-63 2.95466e-63 7.7173e-63 1.99811e-62 5.12793e-62 1.30439e-61 3.28844e-61 8.21596e-61 2.03417e-60 4.99053e-60 1.21314e-59 2.92177e-59 6.97152e-59 1.64787e-58 3.85835e-58 8.94818e-58 2.05537e-57 4.67559e-57 1.05327e-56 2.34948e-56 5.18916e-56 1.13471e-55 2.45638e-55 5.26382e-55 1.11652e-54 2.34397e-54 4.86997e-54 1.00128e-53 2.03703e-53 4.10034e-53 8.16554e-53 1.60863e-52 3.13467e-52 6.0417e-52 1.15164e-51 2.17084e-51 4.04623e-51 7.45672e-51 1.35856e-50 2.44685e-50 4.35602e-50 7.66458e-50 1.3328e-49 2.29021e-49 3.88851e-49 6.52302e-49 1.08102e-48 1.76969e-48 2.86157e-48 4.56998e-48 7.2076e-48 1.12253e-47 1.72624e-47 2.621e-47 3.92879e-47 5.81364e-47 8.49188e-47 1.22433e-46 1.74222e-46 2.44678e-46 3.39121e-46 4.63831e-46 6.2603e-46 8.33776e-46 1.09575e-45 1.42095e-45 1.81824e-45 2.29579e-45 2.86045e-45 3.51701e-45 4.26754e-45 5.11068e-45 6.04116e-45 7.04946e-45 8.12181e-45 9.24039e-45 1.0384e-44 1.1529e-44 1.26505e-44 1.37236e-44 1.47251e-44 1.56348e-44 1.64367e-44 1.71199e-44 1.76795e-44 1.8116e-44 1.8436e-44 1.86504e-44 1.87742e-44 1.88247e-44 1.88207e-44 1.87804e-44 1.8721e-44 1.86575e-44 1.86018e-44 1.85627e-44 1.85459e-44 1.8554e-44 1.85871e-44 1.86436e-44 1.87201e-44 1.88128e-44 1.89177e-44 1.90307e-44 1.91483e-44 1.92675e-44 1.93857e-44 1.95009e-44 1.96113e-44 1.9715e-44 1.98102e-44 1.98948e-44 1.99664e-44 2.00224e-44 2.00597e-44 2.00755e-44 2.00668e-44 2.00312e-44 1.99667e-44 1.98721e-44 1.97473e-44 1.9593e-44 1.94114e-44 1.92055e-44 1.89795e-44 1.87386e-44 1.84885e-44 1.82353e-44 1.79856e-44 1.77452e-44 1.752e-44 1.73149e-44 1.71338e-44 1.69797e-44 1.68543e-44 1.67581e-44 1.66905e-44 1.66502e-44 1.66346e-44 1.66411e-44 1.66663e-44 1.6707e-44 1.67599e-44 1.68221e-44 1.68909e-44 1.69641e-44 1.70401e-44 1.71175e-44 1.71954e-44 1.72736e-44 1.73518e-44 1.74304e-44 1.751e-44 1.75915e-44 1.76761e-44 1.77653e-44 1.78608e-44 1.7964e-44 1.80766e-44 1.81998e-44 1.83341e-44 1.84793e-44 1.86342e-44 1.8796e-44 1.89609e-44 1.91232e-44 1.92758e-44 1.94105e-44 1.95175e-44 1.95863e-44 1.9606e-44 1.95655e-44 1.94542e-44 1.92626e-44 1.89823e-44 1.86072e-44 1.81335e-44 1.756e-44 1.68888e-44 1.61247e-44 1.52759e-44 1.43533e-44 1.33704e-44 1.23429e-44 1.12875e-44 1.02221e-44 9.16428e-45 8.13086e-45 7.13726e-45 6.19682e-45 5.3204e-45 4.51607e-45 3.78908e-45 3.14186e-45 2.57424e-45 2.08383e-45 1.66638e-45 1.31625e-45 1.02687e-45 7.91186e-46 6.02002e-46 4.5233e-46 3.35611e-46 2.45884e-46 1.77883e-46 1.2707e-46 8.96324e-47 6.24314e-47 4.29406e-47 2.91657e-47 1.95628e-47 1.29587e-47 8.47789e-48 5.47807e-48 3.49628e-48 2.2042e-48 1.37273e-48 8.44584e-49 5.13392e-49 3.08345e-49 1.82994e-49 1.0732e-49 6.22021e-50 3.5632e-50 2.01754e-50 1.12923e-50 6.2483e-51 3.41815e-51 1.84887e-51 9.88871e-52 5.23023e-52 2.73558e-52 1.41453e-52 7.22157e-53 3.61841e-53 1.73307e-53 6.93771e-54 0 
0 5.62777e-71 1.88659e-70 5.72974e-70 1.71096e-69 5.06413e-69 1.48691e-68 4.3311e-68 1.25149e-67 3.58712e-67 1.01985e-66 2.87589e-66 8.04325e-66 2.23096e-65 6.13659e-65 1.67384e-64 4.52719e-64 1.21408e-63 3.22805e-63 8.50915e-63 2.22361e-62 5.76011e-62 1.47903e-61 3.76415e-61 9.49464e-61 2.37346e-60 5.8796e-60 1.44328e-59 3.51041e-59 8.4595e-59 2.01966e-58 4.77674e-58 1.11911e-57 2.59698e-57 5.96887e-57 1.35866e-56 3.0626e-56 6.83596e-56 1.5108e-55 3.30579e-55 7.16103e-55 1.53557e-54 3.25932e-54 6.84713e-54 1.42358e-53 2.92891e-53 5.96279e-53 1.20109e-52 2.39355e-52 4.71862e-52 9.20146e-52 1.77471e-51 3.38524e-51 6.3856e-51 1.19104e-50 2.19647e-50 4.00457e-50 7.21739e-50 1.28575e-49 2.26384e-49 3.93919e-49 6.77331e-49 1.15076e-48 1.93163e-48 3.20314e-48 5.24686e-48 8.48903e-48 1.35648e-47 2.14056e-47 3.33551e-47 5.13196e-47 7.7957e-47 1.16908e-46 1.73069e-46 2.529e-46 3.64756e-46 5.19223e-46 7.29423e-46 1.01124e-45 1.38345e-45 1.8676e-45 2.48774e-45 3.26978e-45 4.24051e-45 5.42628e-45 6.85135e-45 8.53591e-45 1.0494e-44 1.27313e-44 1.52432e-44 1.80135e-44 2.10131e-44 2.42e-44 2.75205e-44 3.09106e-44 3.4299e-44 3.76109e-44 4.0772e-44 4.3713e-44 4.63737e-44 4.8707e-44 5.06813e-44 5.22823e-44 5.35135e-44 5.43948e-44 5.49607e-44 5.52567e-44 5.53358e-44 5.52545e-44 5.50683e-44 5.48289e-44 5.45811e-44 5.43608e-44 5.41945e-44 5.40988e-44 5.40814e-44 5.41425e-44 5.42764e-44 5.44736e-44 5.47222e-44 5.50095e-44 5.53236e-44 5.56536e-44 5.59903e-44 5.63261e-44 5.66545e-44 5.69701e-44 5.72674e-44 5.75409e-44 5.77845e-44 5.79911e-44 5.81528e-44 5.82611e-44 5.83075e-44 5.82836e-44 5.8182e-44 5.7997e-44 5.77252e-44 5.73659e-44 5.69215e-44 5.63979e-44 5.58042e-44 5.51525e-44 5.44575e-44 5.37359e-44 5.30057e-44 5.2285e-44 5.15917e-44 5.09421e-44 5.03506e-44 4.98285e-44 4.93844e-44 4.90232e-44 4.87463e-44 4.85522e-44 4.84365e-44 4.83923e-44 4.84114e-44 4.84845e-44 4.86019e-44 4.87545e-44 4.89335e-44 4.91314e-44 4.93419e-44 4.95601e-44 4.97823e-44 5.00062e-44 5.02306e-44 5.04552e-44 5.06809e-44 5.09096e-44 5.1144e-44 5.13877e-44 5.16449e-44 5.19204e-44 5.22193e-44 5.25459e-44 5.2904e-44 5.32954e-44 5.37198e-44 5.41737e-44 5.46499e-44 5.51369e-44 5.56189e-44 5.60758e-44 5.64833e-44 5.68134e-44 5.70358e-44 5.71184e-44 5.70287e-44 5.67354e-44 5.621e-44 5.54278e-44 5.43697e-44 5.30236e-44 5.13853e-44 4.94591e-44 4.72585e-44 4.48063e-44 4.21337e-44 3.92796e-44 3.6289e-44 3.32115e-44 3.0099e-44 2.70034e-44 2.39747e-44 2.10585e-44 1.82949e-44 1.57164e-44 1.33474e-44 1.12042e-44 9.2945e-45 7.61836e-45 6.16919e-45 4.93485e-45 3.899e-45 3.04249e-45 2.3446e-45 1.78422e-45 1.34075e-45 9.9484e-46 7.2888e-46 5.27292e-46 3.7665e-46 2.65657e-46 1.85014e-46 1.27234e-46 8.64027e-47 5.7942e-47 3.83725e-47 2.50974e-47 1.62121e-47 1.03438e-47 6.51894e-48 4.05841e-48 2.49601e-48 1.51662e-48 9.10506e-49 5.40124e-49 3.16623e-49 1.83427e-49 1.05025e-49 5.94374e-50 3.3251e-50 1.83891e-50 1.00546e-50 5.43562e-51 2.9057e-51 1.53602e-51 8.02949e-52 4.14968e-52 2.11737e-52 1.06036e-52 5.07632e-53 2.03142e-53 0 