# vtk DataFile Version 3.0
Gray-Scott Simulation Output
ASCII
DATASET STRUCTURED_POINTS
DIMENSIONS 256 256 1
SPACING 1.0 1.0 1.0
ORIGIN 0 0 0
POINT_DATA 65536
SCALARS u double
LOOKUP_TABLE default
0 0 0 0 0 0 0 0 0 0 0 0 0 0 0 0 0 0 0 0 0 0 0 0 0 0 0 0 0 0 0 0 0 0 0 0 0 0 0 0 0 0 0 0 0 0 0 0 0 0 0 0 0 0 0 0 0 0 0 0 0 0 0 0 0 0 0 0 0 0 0 0 0 0 0 0 0 0 0 0 0 0 0 0 0 0 0 0 0 0 0 0 0 0 0 0 0 0 0 0 0 0 0 0 0 0 0 0 0 0 0 0 0 0 0 0 0 0 0 0 0 0 0 0 0 0 0 0 0 0 0 0 0 0 0 0 0 0 0 0 0 0 0 0 0 0 0 0 0 0 0 0 0 0 0 0 0 0 0 0 0 0 0 0 0 0 0 0 0 0 0 0 0 0 0 0 0 0 0 0 0 0 0 0 0 0 0 0 0 0 0 0 0 0 0 0 0 0 0 0 0 0 0 0 0 0 0 0 0 0 0 0 0 0 0 0 0 0 0 0 0 0 0 0 0 0 0 0 0 0 0 0 0 0 0 0 0 0 0 0 0 0 0 0 0 0 0 0 0 0 0 0 0 0 0 0 
0 2.17264e-76 7.59078e-76 2.42038e-75 7.59736e-75 2.36364e-74 7.29294e-74 2.23166e-73 6.7723e-73 2.038e-72 6.08142e-72 1.79935e-71 5.2785e-71 1.5352e-70 4.42638e-70 1.26515e-69 3.58436e-69 1.00655e-68 2.80146e-68 7.72737e-68 2.11227e-67 5.72147e-67 1.5356e-66 4.08353e-66 1.07584e-65 2.80791e-65 7.25962e-65 1.85913e-64 4.71564e-64 1.18461e-63 2.94699e-63 7.25978e-63 1.77083e-62 4.27664e-62 1.02252e-61 2.42018e-61 5.6702e-61 1.31489e-60 3.01778e-60 6.85417e-60 1.54049e-59 3.4258e-59 7.53752e-59 1.64068e-58 3.53271e-58 7.52394e-58 1.58489e-57 3.30165e-57 6.80147e-57 1.3854e-56 2.79005e-56 5.55483e-56 1.09324e-55 2.12669e-55 4.08882e-55 7.76888e-55 1.45863e-54 2.70593e-54 4.95945e-54 8.9796e-54 1.606e-53 2.83701e-53 4.94952e-53 8.52731e-53 1.45067e-52 2.43666e-52 4.04067e-52 6.61463e-52 1.06885e-51 1.7047e-51 2.68327e-51 4.16808e-51 6.38893e-51 9.66295e-51 1.44196e-50 2.12289e-50 3.08325e-50 4.41749e-50 6.24318e-50 8.70328e-50 1.19672e-49 1.62301e-49 2.17103e-49 2.86433e-49 3.72729e-49 4.78397e-49 6.05648e-49 7.56332e-49 9.31738e-49 1.13241e-48 1.35797e-48 1.607e-48 1.87696e-48 2.16419e-48 2.46401e-48 2.77091e-48 3.07881e-48 3.38138e-48 3.67245e-48 3.94635e-48 4.19829e-48 4.42465e-48 4.62319e-48 4.79312e-48 4.93512e-48 5.05116e-48 5.14427e-48 5.21824e-48 5.27729e-48 5.32568e-48 5.36742e-48 5.40602e-48 5.44425e-48 5.48414e-48 5.52688e-48 5.57294e-48 5.62219e-48 5.67404e-48 5.72764e-48 5.78202e-48 5.83624e-48 5.88947e-48 5.94107e-48 5.99058e-48 6.03769e-48 6.08216e-48 6.1238e-48 6.16234e-48 6.19743e-48 6.22852e-48 6.25489e-48 6.27567e-48 6.28984e-48 6.29633e-48 6.29406e-48 6.28209e-48 6.25966e-48 6.22628e-48 6.18184e-48 6.12662e-48 6.06134e-48 5.98714e-48 5.90554e-48 5.81844e-48 5.72795e-48 5.63638e-48 5.54607e-48 5.45929e-48 5.37815e-48 5.3045e-48 5.23979e-48 5.1851e-48 5.14105e-48 5.10782e-48 5.08516e-48 5.07247e-48 5.06885e-48 5.0732e-48 5.08428e-48 5.10084e-48 5.12166e-48 5.14564e-48 5.1718e-48 5.19934e-48 5.22763e-48 5.2562e-48 5.28474e-48 5.31306e-48 5.3411e-48 5.36891e-48 5.39665e-48 5.42459e-48 5.4531e-48 5.48264e-48 5.51373e-48 5.54691e-48 5.58268e-48 5.6214e-48 5.66323e-48 5.708e-48 5.75515e-48 5.80362e-48 5.85182e-48 5.89764e-48 5.93843e-48 5.97109e-48 5.99219e-48 5.99811e-48 5.98517e-48 5.94989e-48 5.88908e-48 5.80014e-48 5.6811e-48 5.53088e-48 5.34929e-48 5.13716e-48 4.89631e-48 4.62956e-48 4.3406e-48 4.03387e-48 3.71438e-48 3.38755e-48 3.05892e-48 2.73394e-48 2.41777e-48 2.11504e-48 1.82972e-48 1.56494e-48 1.32301e-48 1.10531e-48 9.12388e-49 7.43996e-49 5.99226e-49 4.76628e-49 3.74355e-49 2.90306e-49 2.2226e-49 1.67982e-49 1.25324e-49 9.22906e-50 6.70833e-50 4.81277e-50 3.40795e-50 2.38181e-50 1.643e-50 1.11865e-50 7.5176e-51 4.98667e-51 3.26514e-51 2.11043e-51 1.34659e-51 8.48239e-52 5.27527e-52 3.23921e-52 1.96394e-52 1.17583e-52 6.95201e-53 4.05941e-53 2.34116e-53 1.33367e-53 7.505e-54 4.17223e-54 2.29159e-54 1.24364e-54 6.66916e-55 3.53432e-55 1.85112e-55 9.5828e-56 4.90354e-56 2.48026e-56 1.2399e-56 6.1195e-57 2.96676e-57 1.37917e-57 5.40015e-58 0 
0 7.59266e-76 2.65318e-75 8.46162e-75 2.65661e-74 8.26693e-74 2.55131e-73 7.80892e-73 2.3703e-72 7.13472e-72 2.12955e-71 6.30245e-71 1.84934e-70 5.38005e-70 1.55164e-69 4.43612e-69 1.25718e-68 3.53141e-68 9.83164e-68 2.71272e-67 7.41746e-67 2.00979e-66 5.39588e-66 1.43536e-65 3.78282e-65 9.8764e-65 2.55435e-64 6.54379e-64 1.66041e-63 4.17259e-63 1.03842e-62 2.55905e-62 6.24448e-62 1.50866e-61 3.60852e-61 8.54435e-61 2.00265e-60 4.64595e-60 1.06672e-59 2.42383e-59 5.44992e-59 1.2125e-58 2.66892e-58 5.81192e-58 1.25198e-57 2.66765e-57 5.62182e-57 1.17167e-56 2.41476e-56 4.92092e-56 9.91474e-56 1.97488e-55 3.88853e-55 7.5679e-55 1.45569e-54 2.76714e-54 5.19776e-54 9.64688e-54 1.7689e-53 3.20422e-53 5.73331e-53 1.01324e-52 1.7685e-52 3.04818e-52 5.18779e-52 8.71744e-52 1.44618e-51 2.36836e-51 3.82846e-51 6.10825e-51 9.61812e-51 1.49455e-50 2.29163e-50 3.46707e-50 5.17525e-50 7.62123e-50 1.10718e-49 1.58667e-49 2.24289e-49 3.12726e-49 4.30074e-49 5.83353e-49 7.80409e-49 1.02971e-48 1.34e-48 1.71992e-48 2.17738e-48 2.71898e-48 3.34929e-48 4.07017e-48 4.88016e-48 5.77402e-48 6.74246e-48 7.77219e-48 8.84625e-48 9.94468e-48 1.10455e-47 1.21259e-47 1.31637e-47 1.41384e-47 1.5033e-47 1.58345e-47 1.65351e-47 1.71322e-47 1.76284e-47 1.80309e-47 1.83511e-47 1.86026e-47 1.88009e-47 1.89614e-47 1.90986e-47 1.92252e-47 1.93513e-47 1.94841e-47 1.96279e-47 1.97845e-47 1.99532e-47 2.0132e-47 2.03177e-47 2.05067e-47 2.06958e-47 2.08819e-47 2.10625e-47 2.12361e-47 2.14014e-47 2.15577e-47 2.17041e-47 2.18398e-47 2.19634e-47 2.2073e-47 2.21661e-47 2.22396e-47 2.22898e-47 2.2313e-47 2.23053e-47 2.22634e-47 2.21846e-47 2.20672e-47 2.19107e-47 2.17161e-47 2.1486e-47 2.12243e-47 2.09365e-47 2.06293e-47 2.03101e-47 1.99871e-47 1.96685e-47 1.93624e-47 1.90762e-47 1.88165e-47 1.85883e-47 1.83956e-47 1.82404e-47 1.81234e-47 1.80437e-47 1.79992e-47 1.79866e-47 1.80021e-47 1.80413e-47 1.80997e-47 1.81732e-47 1.82576e-47 1.83498e-47 1.84467e-47 1.85462e-47 1.86467e-47 1.87471e-47 1.88466e-47 1.89452e-47 1.9043e-47 1.91406e-47 1.92389e-47 1.93392e-47 1.94433e-47 1.95528e-47 1.96699e-47 1.97962e-47 1.99331e-47 2.00812e-47 2.024e-47 2.04074e-47 2.05799e-47 2.07518e-47 2.09158e-47 2.10624e-47 2.11808e-47 2.12588e-47 2.12836e-47 2.12422e-47 2.1122e-47 2.09118e-47 2.06022e-47 2.0186e-47 1.96591e-47 1.90209e-47 1.82738e-47 1.74243e-47 1.64821e-47 1.54601e-47 1.4374e-47 1.32415e-47 1.20817e-47 1.09144e-47 9.75908e-48 8.63407e-48 7.55604e-48 6.5392e-48 5.59496e-48 4.73161e-48 3.95428e-48 3.26504e-48 2.66314e-48 2.14544e-48 1.70685e-48 1.34084e-48 1.03995e-48 7.96289e-49 6.01884e-49 4.49069e-49 3.30714e-49 2.40389e-49 1.7246e-49 1.22115e-49 8.534e-50 5.88634e-50 4.00729e-50 2.69265e-50 1.78585e-50 1.16912e-50 7.55516e-51 4.81966e-51 3.0353e-51 1.88721e-51 1.15852e-51 7.02223e-52 4.20305e-52 2.4843e-52 1.45018e-52 8.36089e-53 4.76133e-53 2.67845e-53 1.48851e-53 8.17275e-54 4.43373e-54 2.37678e-54 1.25912e-54 6.59226e-55 3.41137e-55 1.74495e-55 8.82281e-56 4.4089e-56 2.17519e-56 1.05416e-56 4.89889e-57 1.9177e-57 0 
0 2.42168e-75 8.46408e-75 2.70006e-74 8.47931e-74 2.63932e-73 8.14763e-73 2.49448e-72 7.57385e-72 2.28043e-71 6.80859e-71 2.01564e-70 5.91638e-70 1.72173e-69 4.96718e-69 1.42059e-68 4.02726e-68 1.13165e-67 3.15168e-67 8.69917e-67 2.37952e-66 6.44981e-66 1.73231e-65 4.60991e-65 1.2154e-64 3.17453e-64 8.21372e-64 2.10509e-63 5.3437e-63 1.34345e-62 3.34486e-62 8.2467e-62 2.01324e-61 4.86621e-61 1.16448e-60 2.75861e-60 6.46883e-60 1.50144e-59 3.44905e-59 7.84093e-59 1.76391e-58 3.92634e-58 8.64706e-58 1.884e-57 4.06056e-57 8.65663e-57 1.82529e-56 3.80622e-56 7.84872e-56 1.60032e-55 3.22613e-55 6.42954e-55 1.26667e-54 2.46657e-54 4.74709e-54 9.02875e-54 1.69688e-53 3.15109e-53 5.78112e-53 1.04777e-52 1.87578e-52 3.3168e-52 5.79213e-52 9.98844e-52 1.70082e-51 2.85943e-51 4.74597e-51 7.77596e-51 1.25756e-50 2.00732e-50 3.1621e-50 4.91557e-50 7.54012e-50 1.14119e-49 1.70403e-49 2.51023e-49 3.64786e-49 5.2291e-49 7.39362e-49 1.03113e-48 1.41832e-48 1.92412e-48 2.57441e-48 3.39711e-48 4.42108e-48 5.67466e-48 7.18388e-48 8.9703e-48 1.10487e-47 1.34249e-47 1.60937e-47 1.90371e-47 2.22241e-47 2.56102e-47 2.91387e-47 3.27435e-47 3.63514e-47 3.9887e-47 4.32767e-47 4.64534e-47 4.9361e-47 5.19574e-47 5.42172e-47 5.61327e-47 5.77135e-47 5.89845e-47 5.99835e-47 6.07571e-47 6.13563e-47 6.1833e-47 6.22356e-47 6.2606e-47 6.29777e-47 6.33746e-47 6.3811e-47 6.42923e-47 6.48166e-47 6.53768e-47 6.59623e-47 6.65613e-47 6.71624e-47 6.77556e-47 6.83329e-47 6.88884e-47 6.94184e-47 6.99198e-47 7.03902e-47 7.08267e-47 7.12247e-47 7.15781e-47 7.18786e-47 7.21162e-47 7.22791e-47 7.23549e-47 7.23314e-47 7.21976e-47 7.19447e-47 7.15671e-47 7.10633e-47 7.04366e-47 6.9695e-47 6.88515e-47 6.79237e-47 6.69329e-47 6.59035e-47 6.48616e-47 6.38341e-47 6.2847e-47 6.19243e-47 6.10869e-47 6.03516e-47 5.97307e-47 5.9231e-47 5.88545e-47 5.85984e-47 5.84556e-47 5.84158e-47 5.84664e-47 5.85932e-47 5.87818e-47 5.90185e-47 5.92906e-47 5.9587e-47 5.98988e-47 6.02187e-47 6.05417e-47 6.08641e-47 6.1184e-47 6.15007e-47 6.18149e-47 6.21284e-47 6.24444e-47 6.27672e-47 6.31021e-47 6.34552e-47 6.38327e-47 6.42407e-47 6.46835e-47 6.51633e-47 6.56785e-47 6.6223e-47 6.6785e-47 6.7347e-47 6.78849e-47 6.83687e-47 6.87632e-47 6.90291e-47 6.91246e-47 6.90076e-47 6.86372e-47 6.79764e-47 6.69941e-47 6.56668e-47 6.39803e-47 6.19313e-47 5.95275e-47 5.67887e-47 5.37456e-47 5.04397e-47 4.69212e-47 4.32475e-47 3.94807e-47 3.56851e-47 3.19241e-47 2.82581e-47 2.47417e-47 2.1422e-47 1.83367e-47 1.55135e-47 1.29697e-47 1.07128e-47 8.74065e-48 7.04349e-48 5.60497e-48 4.40399e-48 3.41635e-48 2.61626e-48 1.97775e-48 1.47572e-48 1.08683e-48 7.90004e-49 5.66754e-49 4.01285e-49 2.80416e-49 1.93397e-49 1.31643e-49 8.84413e-50 5.86461e-50 3.83852e-50 2.47997e-50 1.58165e-50 9.95809e-51 6.1897e-51 3.79855e-51 2.3017e-51 1.37718e-51 8.13718e-52 4.74824e-52 2.73651e-52 1.55777e-52 8.7596e-53 4.86603e-53 2.6706e-53 1.44819e-53 7.75994e-54 4.10908e-54 2.15041e-54 1.1123e-54 5.68697e-55 2.87415e-55 1.43561e-55 7.0796e-56 3.42948e-56 1.59313e-56 6.23457e-57 0 
0 7.60374e-75 2.65818e-74 8.48187e-74 2.66438e-73 8.29566e-73 2.56162e-72 7.84496e-72 2.38264e-71 7.17616e-71 2.14323e-70 6.34692e-70 1.86359e-69 5.42505e-69 1.56566e-68 4.47927e-68 1.2703e-67 3.57079e-67 9.94851e-67 2.747e-66 7.51689e-66 2.0383e-65 5.47672e-65 1.45803e-64 3.84571e-64 1.00489e-63 2.60117e-63 6.66947e-63 1.69378e-62 4.26025e-62 1.06119e-61 2.61758e-61 6.39328e-61 1.54607e-60 3.70158e-60 8.77327e-60 2.05834e-59 4.77995e-59 1.09861e-58 2.49884e-58 5.62444e-58 1.25264e-57 2.76022e-57 6.0172e-57 1.2976e-56 2.76789e-56 5.83951e-56 1.21839e-55 2.51386e-55 5.12861e-55 1.03449e-54 2.06288e-54 4.06641e-54 7.92307e-54 1.52574e-53 2.90358e-53 5.46021e-53 1.01454e-52 1.86238e-52 3.37731e-52 6.04967e-52 1.07032e-51 1.87012e-51 3.22675e-51 5.49741e-51 9.24714e-51 1.53559e-50 2.51722e-50 4.07293e-50 6.50423e-50 1.02507e-49 1.59419e-49 2.44638e-49 3.70401e-49 5.53292e-49 8.15344e-49 1.18524e-48 1.6995e-48 2.40362e-48 3.35291e-48 4.61289e-48 6.25901e-48 8.37551e-48 1.10532e-47 1.43857e-47 1.84652e-47 2.33758e-47 2.91869e-47 3.59459e-47 4.36703e-47 5.23415e-47 6.18999e-47 7.22418e-47 8.32207e-47 9.46506e-47 1.06314e-46 1.17971e-46 1.29375e-46 1.40288e-46 1.5049e-46 1.59801e-46 1.68084e-46 1.7526e-46 1.81307e-46 1.86258e-46 1.90198e-46 1.93253e-46 1.95578e-46 1.97341e-46 1.98713e-46 1.99852e-46 2.00896e-46 2.01955e-46 2.03107e-46 2.04398e-46 2.05845e-46 2.07441e-46 2.09164e-46 2.10977e-46 2.12843e-46 2.14722e-46 2.16583e-46 2.18398e-46 2.20148e-46 2.2182e-46 2.23404e-46 2.24893e-46 2.26275e-46 2.27537e-46 2.28659e-46 2.29614e-46 2.30371e-46 2.30892e-46 2.31136e-46 2.31066e-46 2.30645e-46 2.29846e-46 2.2865e-46 2.27053e-46 2.25066e-46 2.22712e-46 2.20034e-46 2.17088e-46 2.13941e-46 2.10671e-46 2.07361e-46 2.04098e-46 2.00962e-46 1.98032e-46 1.95373e-46 1.9304e-46 1.91069e-46 1.89485e-46 1.88292e-46 1.87481e-46 1.87031e-46 1.86907e-46 1.8707e-46 1.87474e-46 1.88073e-46 1.88825e-46 1.89687e-46 1.90627e-46 1.91614e-46 1.92627e-46 1.93649e-46 1.94669e-46 1.95681e-46 1.96683e-46 1.97677e-46 1.98669e-46 1.99669e-46 2.00692e-46 2.01754e-46 2.02874e-46 2.04073e-46 2.05371e-46 2.06783e-46 2.08314e-46 2.09961e-46 2.11706e-46 2.13512e-46 2.15322e-46 2.17062e-46 2.18636e-46 2.19933e-46 2.20826e-46 2.21184e-46 2.20869e-46 2.19753e-46 2.17714e-46 2.14651e-46 2.10487e-46 2.05176e-46 1.98701e-46 1.91087e-46 1.82393e-46 1.72715e-46 1.62182e-46 1.50955e-46 1.39216e-46 1.27162e-46 1.15002e-46 1.02937e-46 9.11649e-47 7.98614e-47 6.91796e-47 5.92432e-47 5.01434e-47 4.19382e-47 3.46528e-47 2.82829e-47 2.2798e-47 1.81466e-47 1.42615e-47 1.10653e-47 8.47513e-48 6.40746e-48 4.78139e-48 3.52153e-48 2.55978e-48 1.83636e-48 1.30015e-48 9.08461e-49 6.26472e-49 4.2637e-49 2.86399e-49 1.89876e-49 1.24251e-49 8.02556e-50 5.11708e-50 3.22079e-50 2.00135e-50 1.2278e-50 7.4372e-51 4.44831e-51 2.62734e-51 1.53252e-51 8.8287e-52 5.0237e-52 2.82371e-52 1.56791e-52 8.60134e-53 4.66216e-53 2.49702e-53 1.32162e-53 6.91324e-54 3.5742e-54 1.82655e-54 9.22686e-55 4.60653e-55 2.2706e-55 1.09942e-55 5.10511e-56 1.99723e-56 0 
0 2.36635e-74 8.27436e-74 2.64093e-73 8.2982e-73 2.58442e-72 7.98279e-72 2.44547e-71 7.42956e-71 2.23838e-70 6.68732e-70 1.98102e-69 5.81866e-69 1.69444e-68 4.89186e-68 1.40004e-67 3.97189e-67 1.11691e-66 3.113e-66 8.59903e-66 2.35397e-65 6.3857e-65 1.71649e-64 4.57162e-64 1.20633e-63 3.15356e-63 8.16664e-63 2.0949e-62 5.32267e-62 1.3394e-61 3.33793e-61 8.2375e-61 2.01295e-60 4.87032e-60 1.16664e-59 2.76652e-59 6.49407e-59 1.50887e-58 3.4698e-58 7.89656e-58 1.77835e-57 3.96284e-57 8.73712e-57 1.90575e-56 4.1121e-56 8.7765e-56 1.85269e-55 3.86783e-55 7.98507e-55 1.63003e-54 3.28988e-54 6.56433e-54 1.29475e-53 2.52424e-53 4.86384e-53 9.26174e-53 1.74272e-52 3.24001e-52 5.95121e-52 1.07985e-51 1.93543e-51 3.42617e-51 5.98983e-51 1.03408e-50 1.76273e-50 2.96668e-50 4.9291e-50 8.08421e-50 1.3087e-49 2.09094e-49 3.29686e-49 5.1296e-49 7.87506e-49 1.19283e-48 1.7825e-48 2.62767e-48 3.82102e-48 5.48059e-48 7.7534e-48 1.08182e-47 1.48866e-47 2.02026e-47 2.70379e-47 3.56857e-47 4.64481e-47 5.96212e-47 7.54755e-47 9.42329e-47 1.16043e-46 1.40958e-46 1.68913e-46 1.9971e-46 2.33008e-46 2.68326e-46 3.05058e-46 3.42493e-46 3.79856e-46 4.16346e-46 4.51189e-46 4.83681e-46 5.1324e-46 5.39436e-46 5.62016e-46 5.80918e-46 5.96264e-46 6.08337e-46 6.17553e-46 6.24421e-46 6.29494e-46 6.33328e-46 6.36442e-46 6.39284e-46 6.42208e-46 6.45466e-46 6.49208e-46 6.53488e-46 6.58284e-46 6.63517e-46 6.69072e-46 6.74821e-46 6.8064e-46 6.86421e-46 6.92074e-46 6.97537e-46 7.02765e-46 7.07725e-46 7.12392e-46 7.16731e-46 7.20697e-46 7.24229e-46 7.2724e-46 7.2963e-46 7.31279e-46 7.32061e-46 7.31853e-46 7.30542e-46 7.28039e-46 7.24287e-46 7.19269e-46 7.13018e-46 7.05614e-46 6.97186e-46 6.8791e-46 6.78002e-46 6.67705e-46 6.57283e-46 6.47006e-46 6.37133e-46 6.27908e-46 6.19539e-46 6.12196e-46 6.05999e-46 6.01017e-46 5.9727e-46 5.94728e-46 5.93319e-46 5.92938e-46 5.93456e-46 5.94733e-46 5.96623e-46 5.98987e-46 6.017e-46 6.04651e-46 6.07751e-46 6.10929e-46 6.14135e-46 6.17333e-46 6.20506e-46 6.23647e-46 6.26764e-46 6.29876e-46 6.33015e-46 6.36226e-46 6.39562e-46 6.43087e-46 6.46866e-46 6.5096e-46 6.55418e-46 6.60265e-46 6.6549e-46 6.71034e-46 6.76787e-46 6.82574e-46 6.88158e-46 6.93241e-46 6.97469e-46 7.00447e-46 7.01753e-46 7.00957e-46 6.97642e-46 6.91424e-46 6.81976e-46 6.69047e-46 6.52476e-46 6.3221e-46 6.08312e-46 5.80959e-46 5.50449e-46 5.17186e-46 4.81671e-46 4.44478e-46 4.06236e-46 3.67601e-46 3.29226e-46 2.91735e-46 2.55698e-46 2.2161e-46 1.8987e-46 1.60777e-46 1.34524e-46 1.11197e-46 9.07879e-47 7.32037e-47 5.82837e-47 4.5816e-47 3.55548e-47 2.72364e-47 2.05939e-47 1.53689e-47 1.13198e-47 8.22837e-48 5.90281e-48 4.17896e-48 2.91973e-48 2.0132e-48 1.36996e-48 9.20057e-49 6.09851e-49 3.98981e-49 2.57643e-49 1.64227e-49 1.03337e-49 6.41915e-50 3.93674e-50 2.38376e-50 1.42523e-50 8.41471e-51 4.9063e-51 2.8253e-51 1.60696e-51 9.02845e-52 5.01096e-52 2.74768e-52 1.48863e-52 7.96925e-53 4.21596e-53 2.20425e-53 1.13906e-53 5.8182e-54 2.93763e-54 1.4659e-54 7.22205e-55 3.49523e-55 1.62231e-55 6.34482e-56 0 
0 7.30355e-74 2.5544e-73 8.15509e-73 2.56319e-72 7.98525e-72 2.46724e-71 7.56053e-71 2.29769e-70 6.92474e-70 2.06949e-69 6.13266e-69 1.80191e-68 5.24915e-68 1.51598e-67 4.3403e-67 1.2318e-66 3.46521e-66 9.66183e-66 2.66995e-65 7.31195e-65 1.98436e-64 5.33627e-64 1.42185e-63 3.75356e-63 9.81686e-63 2.54339e-62 6.52733e-62 1.65924e-61 4.17734e-61 1.04155e-60 2.57166e-60 6.28739e-60 1.52201e-59 3.64773e-59 8.65468e-59 2.03268e-58 4.72542e-58 1.08726e-57 2.47576e-57 5.57871e-57 1.24386e-56 2.744e-56 5.98876e-56 1.29297e-55 2.76126e-55 5.83241e-55 1.21836e-54 2.51682e-54 5.14084e-54 1.03821e-53 2.07283e-53 4.091e-53 7.98071e-53 1.53872e-52 2.93184e-52 5.52007e-52 1.0269e-51 1.88735e-51 3.42669e-51 6.14541e-51 1.08853e-50 1.90415e-50 3.28922e-50 5.61012e-50 9.44712e-50 1.57049e-49 2.57712e-49 4.17411e-49 6.67239e-49 1.05257e-48 1.63845e-48 2.5165e-48 3.81334e-48 5.70067e-48 8.40678e-48 1.22289e-47 1.75457e-47 2.48291e-47 3.46523e-47 4.76947e-47 6.4738e-47 8.66543e-47 1.14382e-46 1.48889e-46 1.9112e-46 2.41938e-46 3.02047e-46 3.71915e-46 4.51698e-46 5.4117e-46 6.39676e-46 7.46102e-46 8.58884e-46 9.76055e-46 1.09532e-45 1.21418e-45 1.33005e-45 1.44044e-45 1.54312e-45 1.63621e-45 1.71837e-45 1.78881e-45 1.84736e-45 1.89444e-45 1.93101e-45 1.95842e-45 1.97834e-45 1.99258e-45 2.00293e-45 2.01106e-45 2.01844e-45 2.02619e-45 2.03514e-45 2.04575e-45 2.0582e-45 2.07241e-45 2.08811e-45 2.10495e-45 2.12249e-45 2.14034e-45 2.15813e-45 2.17558e-45 2.19248e-45 2.20869e-45 2.22409e-45 2.2386e-45 2.25211e-45 2.26448e-45 2.2755e-45 2.28491e-45 2.2924e-45 2.29758e-45 2.30006e-45 2.29946e-45 2.29541e-45 2.28763e-45 2.27595e-45 2.26032e-45 2.24082e-45 2.21772e-45 2.19141e-45 2.16244e-45 2.1315e-45 2.09933e-45 2.06678e-45 2.03468e-45 2.00385e-45 1.97504e-45 1.94891e-45 1.92599e-45 1.90666e-45 1.89112e-45 1.87945e-45 1.87154e-45 1.86717e-45 1.86601e-45 1.86765e-45 1.87165e-45 1.87756e-45 1.88494e-45 1.8934e-45 1.90259e-45 1.91224e-45 1.92213e-45 1.93211e-45 1.94205e-45 1.95192e-45 1.96169e-45 1.97138e-45 1.98106e-45 1.99083e-45 2.00083e-45 2.01123e-45 2.02223e-45 2.03404e-45 2.04685e-45 2.06083e-45 2.07605e-45 2.09249e-45 2.10997e-45 2.12816e-45 2.14652e-45 2.16431e-45 2.1806e-45 2.19429e-45 2.20413e-45 2.20882e-45 2.20698e-45 2.1973e-45 2.17855e-45 2.14971e-45 2.10993e-45 2.05871e-45 1.99583e-45 1.92147e-45 1.83614e-45 1.74076e-45 1.63658e-45 1.52514e-45 1.40825e-45 1.28788e-45 1.1661e-45 1.04499e-45 9.26521e-46 8.12518e-46 7.04565e-46 6.03952e-46 5.11649e-46 4.28284e-46 3.54156e-46 2.89256e-46 2.33305e-46 1.85805e-46 1.46093e-46 1.13395e-46 8.68791e-47 6.56988e-47 4.90338e-47 3.6117e-47 2.62537e-47 1.88332e-47 1.33323e-47 9.3141e-48 6.4214e-48 4.36901e-48 2.93366e-48 1.94414e-48 1.2716e-48 8.20927e-49 5.23126e-49 3.29066e-49 2.04344e-49 1.25276e-49 7.5829e-50 4.53203e-50 2.67468e-50 1.55886e-50 8.97288e-51 5.10132e-51 2.86479e-51 1.58928e-51 8.7105e-52 4.71689e-52 2.52393e-52 1.33458e-52 6.97418e-53 3.60216e-53 1.83902e-53 9.28059e-54 4.62874e-54 2.2793e-54 1.10257e-54 5.11533e-55 1.99994e-55 0 
0 2.2356e-73 7.82078e-73 2.49754e-72 7.85221e-72 2.44698e-71 7.56288e-71 2.31828e-70 7.04766e-70 2.12472e-69 6.35197e-69 1.88297e-68 5.53453e-68 1.61285e-67 4.65972e-67 1.33459e-66 3.78911e-66 1.06635e-65 2.97442e-65 8.22289e-65 2.25287e-64 6.11658e-64 1.64556e-63 4.38656e-63 1.15853e-62 3.03137e-62 7.85748e-62 2.0175e-61 5.13093e-61 1.29242e-60 3.22404e-60 7.96446e-60 1.94823e-59 4.71864e-59 1.1315e-58 2.68608e-58 6.31212e-58 1.46822e-57 3.38009e-57 7.70113e-57 1.73633e-56 3.87369e-56 8.5506e-56 1.86728e-55 4.03391e-55 8.62003e-55 1.82188e-54 3.80817e-54 7.87161e-54 1.60887e-53 3.25121e-53 6.4953e-53 1.28275e-52 2.50397e-52 4.83086e-52 9.21048e-52 1.73525e-51 3.23014e-51 5.94045e-51 1.07922e-50 1.93668e-50 3.43252e-50 6.00811e-50 1.03846e-49 1.77224e-49 2.98607e-49 4.96682e-49 8.1549e-49 1.32154e-48 2.11359e-48 3.33585e-48 5.19515e-48 7.98287e-48 1.2102e-47 1.8099e-47 2.67008e-47 3.8854e-47 5.5765e-47 7.89366e-47 1.10195e-46 1.51705e-46 2.05955e-46 2.7572e-46 3.63986e-46 4.73827e-46 6.08243e-46 7.6996e-46 9.61195e-46 1.1834e-45 1.43704e-45 1.72133e-45 2.03412e-45 2.37179e-45 2.72931e-45 3.10033e-45 3.47749e-45 3.85275e-45 4.21791e-45 4.56501e-45 4.88693e-45 5.17778e-45 5.43331e-45 5.65113e-45 5.8308e-45 5.97378e-45 6.08319e-45 6.16351e-45 6.22011e-45 6.25882e-45 6.28544e-45 6.30537e-45 6.32323e-45 6.34269e-45 6.36632e-45 6.39562e-45 6.43114e-45 6.4726e-45 6.51916e-45 6.5696e-45 6.62258e-45 6.67678e-45 6.73105e-45 6.78445e-45 6.8363e-45 6.8861e-45 6.93352e-45 6.97825e-45 7.01996e-45 7.0582e-45 7.09232e-45 7.12152e-45 7.14478e-45 7.16093e-45 7.16875e-45 7.16701e-45 7.15461e-45 7.13066e-45 7.09461e-45 7.04628e-45 6.98596e-45 6.91444e-45 6.83298e-45 6.74327e-45 6.6474e-45 6.54776e-45 6.4469e-45 6.34744e-45 6.25192e-45 6.16269e-45 6.08178e-45 6.01083e-45 5.951e-45 5.90297e-45 5.8669e-45 5.84249e-45 5.82905e-45 5.82553e-45 5.83068e-45 5.84312e-45 5.86144e-45 5.88429e-45 5.91045e-45 5.93887e-45 5.96867e-45 5.9992e-45 6.02997e-45 6.06065e-45 6.09107e-45 6.12119e-45 6.15109e-45 6.18097e-45 6.21113e-45 6.24201e-45 6.27417e-45 6.30822e-45 6.34481e-45 6.38459e-45 6.42805e-45 6.47548e-45 6.52681e-45 6.58154e-45 6.63862e-45 6.69642e-45 6.75267e-45 6.80449e-45 6.84848e-45 6.88079e-45 6.89728e-45 6.89371e-45 6.86595e-45 6.81015e-45 6.72299e-45 6.60183e-45 6.44494e-45 6.25159e-45 6.02219e-45 5.75828e-45 5.46259e-45 5.13894e-45 4.79211e-45 4.42769e-45 4.05184e-45 3.67103e-45 3.29177e-45 2.92032e-45 2.56246e-45 2.2232e-45 1.9067e-45 1.61606e-45 1.35335e-45 1.11956e-45 9.14726e-46 7.38028e-46 5.87935e-46 4.62388e-46 3.58972e-46 2.75074e-46 2.08039e-46 1.55281e-46 1.14381e-46 8.31448e-47 5.96424e-47 4.22193e-47 2.94919e-47 2.03299e-47 1.38299e-47 9.28458e-48 6.15155e-48 4.02255e-48 2.59619e-48 1.6539e-48 1.04004e-48 6.45622e-49 3.95667e-49 2.39404e-49 1.43027e-49 8.43757e-50 4.91549e-50 2.82814e-50 1.60714e-50 9.02121e-51 5.00227e-51 2.74031e-51 1.4832e-51 7.93238e-52 4.19229e-52 2.18968e-52 1.13039e-52 5.76801e-53 2.90931e-53 1.45028e-53 7.13784e-54 3.45108e-54 1.60039e-54 6.25499e-55 0 
0 6.7864e-73 2.37465e-72 7.58551e-72 2.38558e-71 7.43648e-71 2.29912e-70 7.04986e-70 2.1439e-69 6.46556e-69 1.93359e-68 5.73394e-68 1.68596e-67 4.91499e-67 1.42053e-66 4.07014e-66 1.15603e-65 3.25465e-65 9.08212e-65 2.51184e-64 6.88477e-64 1.87004e-63 5.03328e-63 1.34233e-62 3.54686e-62 9.28493e-62 2.40787e-61 6.1855e-61 1.57389e-60 3.96644e-60 9.8997e-60 2.44684e-59 5.98854e-59 1.45122e-58 3.48185e-58 8.27021e-58 1.94455e-57 4.52568e-57 1.0425e-56 2.3766e-56 5.36159e-56 1.19688e-55 2.64354e-55 5.77653e-55 1.24869e-54 2.66999e-54 5.64671e-54 1.18106e-53 2.44285e-53 4.99614e-53 1.01028e-52 2.01967e-52 3.99122e-52 7.79614e-52 1.50508e-51 2.87145e-51 5.41334e-51 1.00834e-50 1.85561e-50 3.37333e-50 6.05734e-50 1.07427e-49 1.88151e-49 3.25406e-49 5.55677e-49 9.36822e-49 1.55915e-48 2.56138e-48 4.1531e-48 6.64578e-48 1.04943e-47 1.63516e-47 2.51377e-47 3.81257e-47 5.70426e-47 8.41862e-47 1.2255e-46 1.75948e-46 2.49134e-46 3.47884e-46 4.79041e-46 6.50474e-46 8.70955e-46 1.14991e-45 1.49703e-45 1.92177e-45 2.43268e-45 3.0367e-45 3.7383e-45 4.53878e-45 5.43551e-45 6.42149e-45 7.48507e-45 8.61007e-45 9.77621e-45 1.096e-44 1.2136e-44 1.3278e-44 1.43609e-44 1.53623e-44 1.62637e-44 1.70518e-44 1.77195e-44 1.82656e-44 1.86951e-44 1.90183e-44 1.92497e-44 1.94066e-44 1.95076e-44 1.95715e-44 1.96152e-44 1.96537e-44 1.96984e-44 1.97575e-44 1.98359e-44 1.9935e-44 2.0054e-44 2.01902e-44 2.03396e-44 2.04979e-44 2.06609e-44 2.08248e-44 2.09868e-44 2.11444e-44 2.12961e-44 2.14409e-44 2.15776e-44 2.17053e-44 2.18226e-44 2.19274e-44 2.20172e-44 2.20888e-44 2.21388e-44 2.21632e-44 2.21583e-44 2.21207e-44 2.20475e-44 2.19371e-44 2.1789e-44 2.16039e-44 2.13844e-44 2.11342e-44 2.08586e-44 2.0564e-44 2.02578e-44 1.99479e-44 1.96423e-44 1.93488e-44 1.90746e-44 1.88261e-44 1.86083e-44 1.84246e-44 1.82773e-44 1.81668e-44 1.80921e-44 1.80511e-44 1.80406e-44 1.80566e-44 1.8095e-44 1.81513e-44 1.82215e-44 1.83017e-44 1.83888e-44 1.84801e-44 1.85735e-44 1.86677e-44 1.87615e-44 1.88546e-44 1.89467e-44 1.90381e-44 1.91296e-44 1.92219e-44 1.93165e-44 1.94151e-44 1.95197e-44 1.96322e-44 1.97547e-44 1.98888e-44 2.00354e-44 2.01944e-44 2.03644e-44 2.05421e-44 2.07227e-44 2.08993e-44 2.10629e-44 2.12033e-44 2.13084e-44 2.13656e-44 2.13616e-44 2.12837e-44 2.11197e-44 2.08591e-44 2.04937e-44 2.00177e-44 1.94285e-44 1.87271e-44 1.79178e-44 1.70089e-44 1.60118e-44 1.49412e-44 1.38143e-44 1.265e-44 1.14686e-44 1.02903e-44 9.1348e-45 8.02011e-45 6.9622e-45 5.97418e-45 5.06602e-45 4.24439e-45 3.51263e-45 2.87104e-45 2.31721e-45 1.84649e-45 1.45255e-45 1.12791e-45 8.64442e-46 6.53859e-46 4.88084e-46 3.59541e-46 2.61356e-46 1.87473e-46 1.32698e-46 9.26855e-47 6.3883e-47 4.34506e-47 2.91645e-47 1.93187e-47 1.26295e-47 8.14886e-48 5.18965e-48 3.26237e-48 2.02447e-48 1.24023e-48 7.50127e-49 4.47963e-49 2.64155e-49 1.53822e-49 8.84617e-50 5.02466e-50 2.81909e-50 1.56243e-50 8.55493e-51 4.62804e-51 2.47388e-51 1.30678e-51 6.82188e-52 3.51984e-52 1.79511e-52 9.04948e-53 4.50873e-53 2.21788e-53 1.07178e-53 4.96794e-54 1.941e-54 0 
0 2.04289e-72 7.15006e-72 2.28467e-71 7.1873e-71 2.24117e-70 6.93123e-70 2.12605e-69 6.46759e-69 1.95117e-68 5.83725e-68 1.73163e-67 5.09342e-67 1.48542e-66 4.29483e-66 1.23105e-65 3.49792e-65 9.852e-65 2.75037e-64 7.60995e-64 2.08675e-63 5.67057e-63 1.52695e-62 4.07412e-62 1.07702e-61 2.82079e-61 7.31877e-61 1.88104e-60 4.78872e-60 1.20746e-59 3.01525e-59 7.45659e-59 1.82597e-58 4.42737e-58 1.06284e-57 2.52594e-57 5.94262e-57 1.38388e-56 3.1897e-56 7.27603e-56 1.64247e-55 3.66879e-55 8.10834e-55 1.77292e-54 3.8349e-54 8.20522e-54 1.73644e-53 3.63429e-53 7.522e-53 1.53943e-52 3.115e-52 6.23141e-52 1.23227e-51 2.40864e-51 4.65311e-51 8.8834e-51 1.67585e-50 3.1237e-50 5.75225e-50 1.0464e-49 1.88021e-49 3.33671e-49 5.84781e-49 1.01201e-48 1.72923e-48 2.91712e-48 4.85786e-48 7.98515e-48 1.29547e-47 2.07415e-47 3.27702e-47 5.10864e-47 7.85747e-47 1.19227e-46 1.78462e-46 2.6349e-46 3.83706e-46 5.51089e-46 7.80561e-46 1.09026e-45 1.50167e-45 2.03948e-45 2.73122e-45 3.60643e-45 4.69546e-45 6.02786e-45 7.63029e-45 9.52422e-45 1.17234e-44 1.42313e-44 1.70392e-44 2.01245e-44 2.34499e-44 2.69638e-44 3.06019e-44 3.42899e-44 3.79471e-44 4.14915e-44 4.4844e-44 4.79343e-44 5.0705e-44 5.31153e-44 5.51433e-44 5.67869e-44 5.80629e-44 5.90047e-44 5.96589e-44 6.00808e-44 6.033e-44 6.04655e-44 6.05416e-44 6.06048e-44 6.06918e-44 6.08282e-44 6.10286e-44 6.1298e-44 6.16334e-44 6.20259e-44 6.2463e-44 6.2931e-44 6.34162e-44 6.39069e-44 6.43932e-44 6.48681e-44 6.53264e-44 6.57644e-44 6.6179e-44 6.65667e-44 6.69231e-44 6.72423e-44 6.75162e-44 6.77353e-44 6.78886e-44 6.79642e-44 6.79506e-44 6.78373e-44 6.76158e-44 6.72806e-44 6.68302e-44 6.62671e-44 6.55987e-44 6.48366e-44 6.3997e-44 6.30994e-44 6.21663e-44 6.12217e-44 6.02902e-44 5.93958e-44 5.85605e-44 5.78035e-44 5.71402e-44 5.65813e-44 5.61332e-44 5.57973e-44 5.55707e-44 5.54467e-44 5.54154e-44 5.54649e-44 5.55823e-44 5.57541e-44 5.59678e-44 5.62119e-44 5.64766e-44 5.67539e-44 5.70375e-44 5.73231e-44 5.76077e-44 5.78899e-44 5.81693e-44 5.84467e-44 5.8724e-44 5.90044e-44 5.92919e-44 5.95918e-44 5.99101e-44 6.02532e-44 6.06275e-44 6.10379e-44 6.14875e-44 6.19763e-44 6.25e-44 6.30494e-44 6.36095e-44 6.41594e-44 6.46725e-44 6.51168e-44 6.54562e-44 6.56515e-44 6.56622e-44 6.54486e-44 6.49732e-44 6.42033e-44 6.31123e-44 6.16818e-44 5.99029e-44 5.77771e-44 5.53171e-44 5.25469e-44 4.95009e-44 4.62235e-44 4.2767e-44 3.91899e-44 3.5554e-44 3.19223e-44 2.83557e-44 2.49107e-44 2.16373e-44 1.85768e-44 1.57609e-44 1.32109e-44 1.09379e-44 8.94349e-45 7.22073e-45 5.75562e-45 4.52885e-45 3.5174e-45 2.69622e-45 2.03966e-45 1.52266e-45 1.1217e-45 8.15384e-46 5.84863e-46 4.13951e-46 2.89101e-46 1.99234e-46 1.35487e-46 9.09215e-47 6.02127e-47 3.93533e-47 2.53844e-47 1.61611e-47 1.01559e-47 6.30001e-48 3.85803e-48 2.33251e-48 1.39235e-48 8.20684e-49 4.77682e-49 2.74583e-49 1.5589e-49 8.74193e-50 4.84262e-50 2.65018e-50 1.43295e-50 7.65569e-51 4.04181e-51 2.10885e-51 1.0875e-51 5.54318e-52 2.7929e-52 1.39075e-52 6.83749e-53 3.30243e-53 1.53003e-53 5.9758e-54 0 