# vtk DataFile Version 3.0
Gray-Scott Simulation Output
ASCII
DATASET STRUCTURED_POINTS
DIMENSIONS 256 256 1
SPACING 1.0 1.0 1.0
ORIGIN 0 0 0
POINT_DATA 65536
SCALARS u double
LOOKUP_TABLE default
0 0 0 0 0 0 0 0 0 0 0 0 0 0 0 0 0 0 0 0 0 0 0 0 0 0 0 0 0 0 0 0 0 0 0 0 0 0 0 0 0 0 0 0 0 0 0 0 0 0 0 0 0 0 0 0 0 0 0 0 0 0 0 0 0 0 0 0 0 0 0 0 0 0 0 0 0 0 0 0 0 0 0 0 0 0 0 0 0 0 0 0 0 0 0 0 0 0 0 0 0 0 0 0 0 0 0 0 0 0 0 0 0 0 0 0 0 0 0 0 0 0 0 0 0 0 0 0 0 0 0 0 0 0 0 0 0 0 0 0 0 0 0 0 0 0 0 0 0 0 0 0 0 0 0 0 0 0 0 0 0 0 0 0 0 0 0 0 0 0 0 0 0 0 0 0 0 0 0 0 0 0 0 0 0 0 0 0 0 0 0 0 0 0 0 0 0 0 0 0 0 0 0 0 0 0 0 0 0 0 0 0 0 0 0 0 0 0 0 0 0 0 0 0 0 0 0 0 0 0 0 0 0 0 0 0 0 0 0 0 0 0 0 0 0 0 0 0 0 0 0 0 0 0 0 0 
0 2.66379e-108 1.756e-107 1.12065e-106 7.07771e-106 4.42561e-105 2.73954e-104 1.67868e-103 1.01812e-102 6.11134e-102 3.63022e-101 2.13377e-100 1.2409e-99 7.13929e-99 4.0631e-98 2.28717e-97 1.2733e-96 7.00984e-96 3.81574e-95 2.0535e-94 1.09246e-93 5.74455e-93 2.98537e-92 1.53312e-91 7.77916e-91 3.89956e-90 1.93092e-89 9.44331e-89 4.56071e-88 2.17485e-87 1.02389e-86 4.75818e-86 2.18236e-85 9.87743e-85 4.41089e-84 1.94314e-83 8.44321e-83 3.61796e-82 1.52862e-81 6.36706e-81 2.614e-80 1.0576e-79 4.21603e-79 1.65566e-78 6.40387e-78 2.43909e-77 9.14622e-77 3.37592e-76 1.22628e-75 4.38265e-75 1.54078e-74 5.32723e-74 1.811e-73 6.05185e-73 1.9875e-72 6.41306e-72 2.03262e-71 6.32651e-71 1.9332e-70 5.79797e-70 1.70625e-69 4.92554e-69 1.3944e-68 3.87002e-68 1.0527e-67 2.80562e-67 7.32409e-67 1.87215e-66 4.6844e-66 1.14697e-65 2.74724e-65 6.43488e-65 1.47347e-64 3.29726e-64 7.20826e-64 1.53896e-63 3.20773e-63 6.52523e-63 1.29503e-62 2.50671e-62 4.7308e-62 8.70229e-62 1.55981e-61 2.72349e-61 4.63103e-61 7.66692e-61 1.23554e-60 1.93777e-60 2.95724e-60 4.39092e-60 6.34273e-60 8.91329e-60 1.21859e-59 1.62098e-59 2.09837e-59 2.64421e-59 3.24481e-59 3.87966e-59 4.52282e-59 5.14538e-59 5.71879e-59 6.21835e-59 6.62656e-59 6.93543e-59 7.14764e-59 7.27611e-59 7.34213e-59 7.37245e-59 7.39557e-59 7.43799e-59 7.52083e-59 7.65734e-59 7.8516e-59 8.09853e-59 8.38526e-59 8.69355e-59 9.00282e-59 9.29345e-59 9.54964e-59 9.76149e-59 9.92594e-59 1.00466e-58 1.01324e-58 1.01958e-58 1.02501e-58 1.03079e-58 1.03786e-58 1.0468e-58 1.05774e-58 1.07042e-58 1.08423e-58 1.09831e-58 1.11163e-58 1.12309e-58 1.13158e-58 1.13607e-58 1.13568e-58 1.12974e-58 1.11786e-58 1.09996e-58 1.07635e-58 1.04763e-58 1.01471e-58 9.78725e-59 9.40927e-59 9.02634e-59 8.65158e-59 8.29756e-59 7.97596e-59 7.6972e-59 7.46993e-59 7.30042e-59 7.19189e-59 7.14383e-59 7.15178e-59 7.20748e-59 7.29966e-59 7.41538e-59 7.54162e-59 7.66696e-59 7.78295e-59 7.88499e-59 7.97241e-59 8.048e-59 8.11684e-59 8.18487e-59 8.25731e-59 8.33731e-59 8.42511e-59 8.51778e-59 8.60974e-59 8.69401e-59 8.7638e-59 8.81443e-59 8.84487e-59 8.85883e-59 8.86485e-59 8.87548e-59 8.90553e-59 8.96966e-59 9.07977e-59 9.24254e-59 9.45768e-59 9.71711e-59 1.00053e-58 1.03005e-58 1.0577e-58 1.08077e-58 1.09668e-58 1.1032e-58 1.09864e-58 1.08193e-58 1.05267e-58 1.01109e-58 9.58017e-59 8.94793e-59 8.2319e-59 7.45328e-59 6.63565e-59 5.80382e-59 4.98238e-59 4.19431e-59 3.45942e-59 2.79328e-59 2.20632e-59 1.70365e-59 1.28527e-59 9.46883e-60 6.80938e-60 4.7784e-60 3.2712e-60 2.18423e-60 1.42232e-60 9.03173e-61 5.59251e-61 3.37686e-61 1.98845e-61 1.14197e-61 6.39707e-62 3.49594e-62 1.86415e-62 9.70095e-63 4.92788e-63 2.44409e-63 1.18384e-63 5.60139e-64 2.58966e-64 1.17017e-64 5.16939e-65 2.23322e-65 9.43738e-66 3.90231e-66 1.57931e-66 6.25771e-67 2.42822e-67 9.23012e-68 3.43794e-68 1.25511e-68 4.49243e-69 1.57693e-69 5.42992e-70 1.8346e-70 6.08371e-71 1.98056e-71 6.33157e-72 1.98814e-72 6.13337e-73 1.85941e-73 5.54084e-74 1.62332e-74 4.67686e-75 1.32531e-75 3.69379e-76 1.00881e-76 2.54683e-77 0 
0 1.75637e-107 1.15765e-106 7.38685e-106 4.66462e-105 2.91631e-104 1.80499e-103 1.10587e-102 6.70617e-102 4.02486e-101 2.3905e-100 1.4049e-99 8.16914e-99 4.69936e-98 2.67416e-97 1.50513e-96 8.37826e-96 4.61188e-95 2.51014e-94 1.35072e-93 7.18498e-93 3.77772e-92 1.96302e-91 1.00799e-90 5.11413e-90 2.56337e-89 1.26917e-88 6.20641e-88 2.99717e-87 1.42913e-86 6.7276e-86 3.12617e-85 1.43373e-84 6.48863e-84 2.89738e-83 1.27631e-82 5.5454e-82 2.3761e-81 1.00387e-80 4.18115e-80 1.71649e-79 6.94448e-79 2.76826e-78 1.08708e-77 4.20454e-77 1.60138e-76 6.00479e-76 2.21637e-75 8.05069e-75 2.87725e-74 1.01153e-73 3.49736e-73 1.18894e-72 3.97314e-72 1.30484e-71 4.21042e-71 1.33452e-70 4.1538e-70 1.26932e-69 3.80704e-69 1.1204e-68 3.23446e-68 9.15705e-68 2.54159e-67 6.91386e-67 1.84277e-66 4.81086e-66 1.22981e-65 3.07739e-65 7.53551e-65 1.80505e-64 4.22831e-64 9.68282e-64 2.16695e-63 4.73765e-63 1.01157e-62 2.10864e-62 4.28982e-62 8.51449e-62 1.64824e-61 3.11091e-61 5.72298e-61 1.02588e-60 1.79136e-60 3.04627e-60 5.04364e-60 8.1285e-60 1.27493e-59 1.94579e-59 2.88928e-59 4.17382e-59 5.86565e-59 8.01962e-59 1.06682e-58 1.38106e-58 1.74037e-58 2.13574e-58 2.55368e-58 2.97711e-58 3.38701e-58 3.76457e-58 4.09356e-58 4.36244e-58 4.56595e-58 4.70584e-58 4.79059e-58 4.8342e-58 4.85425e-58 4.86945e-58 4.89724e-58 4.9515e-58 5.04095e-58 5.16827e-58 5.33016e-58 5.51818e-58 5.72035e-58 5.92319e-58 6.11383e-58 6.28189e-58 6.42088e-58 6.52879e-58 6.60797e-58 6.66429e-58 6.70588e-58 6.74155e-58 6.77944e-58 6.82582e-58 6.88441e-58 6.95614e-58 7.03925e-58 7.12977e-58 7.22205e-58 7.30936e-58 7.38447e-58 7.44015e-58 7.46963e-58 7.46711e-58 7.42819e-58 7.3503e-58 7.23302e-58 7.07819e-58 6.88988e-58 6.67403e-58 6.43801e-58 6.19008e-58 5.93889e-58 5.69302e-58 5.46074e-58 5.24971e-58 5.06677e-58 4.91761e-58 4.80637e-58 4.73515e-58 4.70365e-58 4.70891e-58 4.74554e-58 4.80613e-58 4.88217e-58 4.96512e-58 5.04746e-58 5.12365e-58 5.19066e-58 5.24805e-58 5.29764e-58 5.34278e-58 5.38738e-58 5.43486e-58 5.48731e-58 5.54488e-58 5.60565e-58 5.66599e-58 5.72128e-58 5.76709e-58 5.80032e-58 5.82032e-58 5.82949e-58 5.83344e-58 5.84039e-58 5.86006e-58 5.90206e-58 5.9742e-58 6.08085e-58 6.22184e-58 6.39187e-58 6.58075e-58 6.77422e-58 6.95544e-58 7.10665e-58 7.21089e-58 7.25357e-58 7.22355e-58 7.11382e-58 6.92168e-58 6.64868e-58 6.30019e-58 5.88497e-58 5.41464e-58 4.90308e-58 4.36577e-58 3.81899e-58 3.27891e-58 2.76065e-58 2.27726e-58 1.83898e-58 1.45273e-58 1.12188e-58 8.46455e-59 6.2366e-59 4.48534e-59 3.14777e-59 2.15504e-59 1.43903e-59 9.37099e-60 5.95075e-60 3.68482e-60 2.22499e-60 1.31017e-60 7.52424e-61 4.21486e-61 2.30333e-61 1.22817e-61 6.39109e-62 3.2464e-62 1.61004e-62 7.79813e-63 3.68952e-63 1.70566e-63 7.70679e-64 3.40436e-64 1.47062e-64 6.21432e-65 2.56943e-65 1.03982e-65 4.11982e-66 1.59854e-66 6.07602e-67 2.26301e-67 8.26131e-68 2.95683e-68 1.03785e-68 3.57354e-69 1.20734e-69 4.0035e-70 1.3033e-70 4.16635e-71 1.30822e-71 4.03574e-72 1.22346e-72 3.64575e-73 1.06809e-73 3.07722e-74 8.72011e-75 2.4304e-75 6.6377e-76 1.67576e-76 0 
0 1.12114e-106 7.38851e-106 4.7138e-105 2.9762e-104 1.86043e-103 1.1513e-102 7.05267e-102 4.27625e-101 2.56612e-100 1.52389e-99 8.95469e-99 5.20623e-98 2.99453e-97 1.7038e-96 9.58851e-96 5.33675e-95 2.9373e-94 1.59851e-93 8.60065e-93 4.57449e-92 2.40491e-91 1.24953e-90 6.41556e-90 3.25465e-89 1.63118e-88 8.0755e-88 3.94865e-87 1.90669e-86 9.09085e-86 4.27915e-85 1.98828e-84 9.11795e-84 4.12623e-83 1.84237e-82 8.11522e-82 3.52575e-81 1.51063e-80 6.38189e-80 2.65795e-79 1.09113e-78 4.41424e-78 1.75958e-77 6.90955e-77 2.67237e-76 1.0178e-75 3.81645e-75 1.40863e-74 5.11666e-74 1.82865e-73 6.42885e-73 2.22278e-72 7.55651e-72 2.52524e-71 8.29347e-71 2.67618e-70 8.48258e-70 2.64036e-69 8.06877e-69 2.42015e-68 7.12274e-68 2.05637e-67 5.8221e-67 1.61605e-66 4.39643e-66 1.17187e-65 3.0596e-65 7.82194e-65 1.95746e-64 4.79358e-64 1.14835e-63 2.69023e-63 6.16119e-63 1.37896e-62 3.01514e-62 6.43846e-62 1.34224e-61 2.73092e-61 5.42089e-61 1.04948e-60 1.98099e-60 3.64467e-60 6.53387e-60 1.14103e-59 1.94053e-59 3.21314e-59 5.17882e-59 8.12338e-59 1.23987e-58 1.8412e-58 2.65993e-58 3.73832e-58 5.11134e-58 6.79974e-58 8.80301e-58 1.10937e-57 1.36144e-57 1.6279e-57 1.89788e-57 2.15926e-57 2.40003e-57 2.60986e-57 2.78138e-57 2.91124e-57 3.00055e-57 3.05469e-57 3.08259e-57 3.09541e-57 3.10509e-57 3.12271e-57 3.15712e-57 3.21386e-57 3.29465e-57 3.39741e-57 3.51678e-57 3.64515e-57 3.77396e-57 3.89504e-57 4.00178e-57 4.09007e-57 4.15863e-57 4.20894e-57 4.24473e-57 4.27116e-57 4.29383e-57 4.3179e-57 4.34734e-57 4.38453e-57 4.43005e-57 4.48279e-57 4.54023e-57 4.59879e-57 4.65421e-57 4.70188e-57 4.73723e-57 4.75596e-57 4.75438e-57 4.7297e-57 4.68028e-57 4.60584e-57 4.50757e-57 4.38802e-57 4.25098e-57 4.1011e-57 3.94365e-57 3.78411e-57 3.62793e-57 3.48036e-57 3.34628e-57 3.23004e-57 3.13526e-57 3.06457e-57 3.01933e-57 2.99933e-57 3.00271e-57 3.02604e-57 3.0646e-57 3.11299e-57 3.16576e-57 3.21814e-57 3.2666e-57 3.3092e-57 3.34568e-57 3.37718e-57 3.40584e-57 3.43414e-57 3.46428e-57 3.49756e-57 3.53411e-57 3.57271e-57 3.61103e-57 3.64616e-57 3.67527e-57 3.69639e-57 3.70911e-57 3.71495e-57 3.71745e-57 3.72185e-57 3.73432e-57 3.76094e-57 3.8067e-57 3.87436e-57 3.96381e-57 4.07171e-57 4.19156e-57 4.31434e-57 4.42935e-57 4.52529e-57 4.59142e-57 4.61846e-57 4.59932e-57 4.52954e-57 4.40739e-57 4.23383e-57 4.01226e-57 3.74821e-57 3.44905e-57 3.1236e-57 2.78167e-57 2.43363e-57 2.08978e-57 1.75972e-57 1.45179e-57 1.17254e-57 9.26387e-58 7.15491e-58 5.39898e-58 3.97831e-58 2.86144e-58 2.00829e-58 1.37501e-58 9.18212e-59 5.97967e-59 3.79731e-59 2.35141e-59 1.41985e-59 8.36068e-60 4.80142e-60 2.68955e-60 1.46973e-60 7.83653e-61 4.07776e-61 2.07122e-61 1.02716e-61 4.97466e-62 2.3535e-62 1.08794e-62 4.9154e-63 2.17115e-63 9.37831e-64 3.96265e-64 1.63832e-64 6.62959e-65 2.6265e-65 1.01904e-65 3.87311e-66 1.44245e-66 5.26544e-67 1.88445e-67 6.61412e-68 2.27725e-68 7.69343e-69 2.55101e-69 8.30425e-70 2.65457e-70 8.33497e-71 2.57119e-71 7.79457e-72 2.32262e-72 6.80447e-73 1.96037e-73 5.55519e-74 1.54829e-74 4.22858e-75 1.06755e-75 0 
0 7.08243e-106 4.66674e-105 2.97688e-104 1.87926e-103 1.17455e-102 7.26751e-102 4.45129e-101 2.69857e-100 1.61915e-99 9.61399e-99 5.64861e-98 3.28365e-97 1.88845e-96 1.07434e-95 6.0453e-95 3.36426e-94 1.85144e-93 1.00746e-92 5.41991e-92 2.88241e-91 1.51518e-90 7.87168e-90 4.0412e-89 2.04992e-88 1.02729e-87 5.08535e-87 2.48635e-86 1.20048e-85 5.72327e-85 2.69379e-84 1.25156e-83 5.73906e-83 2.59698e-82 1.15948e-81 5.10695e-81 2.21865e-80 9.5055e-80 4.01555e-79 1.67234e-78 6.86494e-78 2.77717e-77 1.10699e-76 4.34684e-76 1.68117e-75 6.40281e-75 2.40084e-74 8.86134e-74 3.21875e-73 1.15036e-72 4.04426e-72 1.39833e-71 4.7538e-71 1.58867e-70 5.21769e-70 1.68373e-69 5.33705e-69 1.66133e-68 5.07714e-68 1.52292e-67 4.48236e-67 1.29416e-66 3.66433e-66 1.01719e-65 2.76744e-65 7.37722e-65 1.92625e-64 4.92492e-64 1.23258e-63 3.01872e-63 7.23232e-63 1.69448e-62 3.88111e-62 8.68736e-62 1.89971e-61 4.05703e-61 8.45868e-61 1.72118e-60 3.41691e-60 6.61581e-60 1.24892e-59 2.29803e-59 4.12013e-59 7.19579e-59 1.22389e-58 2.0267e-58 3.26684e-58 5.1247e-58 7.82243e-58 1.1617e-57 1.67838e-57 2.35897e-57 3.22555e-57 4.29124e-57 5.55571e-57 7.00164e-57 8.59284e-57 1.0275e-56 1.19794e-56 1.36296e-56 1.51498e-56 1.64749e-56 1.75582e-56 1.83786e-56 1.8943e-56 1.92855e-56 1.94621e-56 1.95433e-56 1.96042e-56 1.97148e-56 1.99307e-56 2.0287e-56 2.07945e-56 2.14403e-56 2.21905e-56 2.29975e-56 2.38073e-56 2.45686e-56 2.52399e-56 2.57951e-56 2.62263e-56 2.65428e-56 2.6768e-56 2.69342e-56 2.70768e-56 2.72281e-56 2.74132e-56 2.76469e-56 2.79328e-56 2.82642e-56 2.86251e-56 2.8993e-56 2.93412e-56 2.96408e-56 2.9863e-56 2.99808e-56 2.9971e-56 2.9816e-56 2.95056e-56 2.9038e-56 2.84204e-56 2.76691e-56 2.68076e-56 2.58655e-56 2.48755e-56 2.38723e-56 2.28901e-56 2.1962e-56 2.11186e-56 2.03874e-56 1.97911e-56 1.93465e-56 1.90619e-56 1.89362e-56 1.89577e-56 1.91048e-56 1.93478e-56 1.96527e-56 1.99851e-56 2.0315e-56 2.06201e-56 2.08883e-56 2.11177e-56 2.13158e-56 2.1496e-56 2.16738e-56 2.18631e-56 2.20722e-56 2.23019e-56 2.25446e-56 2.27855e-56 2.30065e-56 2.31896e-56 2.33226e-56 2.34027e-56 2.34394e-56 2.34552e-56 2.34827e-56 2.35609e-56 2.3728e-56 2.40153e-56 2.44402e-56 2.50021e-56 2.56799e-56 2.64329e-56 2.72043e-56 2.79269e-56 2.85296e-56 2.8945e-56 2.91145e-56 2.89937e-56 2.85544e-56 2.77857e-56 2.66933e-56 2.52985e-56 2.36361e-56 2.17523e-56 1.97023e-56 1.75481e-56 1.53547e-56 1.31871e-56 1.1106e-56 9.16393e-57 7.40229e-57 5.84906e-57 4.51805e-57 3.40963e-57 2.51269e-57 1.80744e-57 1.26864e-57 8.68652e-58 5.80102e-58 3.77794e-58 2.3992e-58 1.48567e-58 8.97094e-59 5.28244e-59 3.03357e-59 1.69923e-59 9.28527e-60 4.95063e-60 2.57594e-60 1.30832e-60 6.48781e-61 3.14191e-61 1.48633e-61 6.87027e-62 3.10379e-62 1.37085e-62 5.92091e-63 2.50158e-63 1.03417e-63 4.18453e-64 1.65769e-64 6.43111e-65 2.44411e-65 9.10182e-66 3.32226e-66 1.18893e-66 4.17267e-67 1.43657e-67 4.85302e-68 1.60909e-68 5.23779e-69 1.67426e-69 5.25673e-70 1.62155e-70 4.91558e-71 1.4647e-71 4.29097e-72 1.23621e-72 3.50306e-73 9.76331e-74 2.66647e-74 6.7318e-75 0 
0 4.42959e-105 2.91831e-104 1.86129e-103 1.17483e-102 7.34169e-102 4.54199e-101 2.78154e-100 1.68605e-99 1.0115e-98 6.00513e-98 3.52778e-97 2.0505e-96 1.17911e-95 6.70709e-95 3.77362e-94 2.0998e-93 1.15544e-92 6.28658e-92 3.38167e-91 1.79824e-90 9.45175e-90 4.90988e-89 2.52041e-88 1.27837e-87 6.40578e-87 3.17075e-86 1.55012e-85 7.48385e-85 3.56763e-84 1.67906e-83 7.80051e-83 3.57671e-82 1.61839e-81 7.2253e-81 3.18221e-80 1.3824e-79 5.92244e-79 2.5018e-78 1.04188e-77 4.27676e-77 1.73009e-76 6.89601e-76 2.70782e-75 1.04725e-74 3.98848e-74 1.49554e-73 5.51994e-73 2.00505e-72 7.16596e-72 2.51935e-71 8.71096e-71 2.96148e-70 9.89723e-70 3.25069e-69 1.04902e-68 3.32533e-68 1.03517e-67 3.16373e-67 9.49035e-67 2.79345e-66 8.06587e-66 2.28397e-65 6.34062e-65 1.72522e-64 4.59936e-64 1.20104e-63 3.07103e-63 7.68678e-63 1.88276e-62 4.51123e-62 1.05706e-61 2.4214e-61 5.4206e-61 1.18549e-60 2.53201e-60 5.27971e-60 1.07444e-59 2.13324e-59 4.13084e-59 7.79901e-59 1.43518e-58 2.57341e-58 4.49491e-58 7.64588e-58 1.26624e-57 2.04124e-57 3.20238e-57 4.88855e-57 7.26046e-57 1.04904e-56 1.47452e-56 2.0163e-56 2.68259e-56 3.47321e-56 4.37732e-56 5.3723e-56 6.4242e-56 7.49006e-56 8.52205e-56 9.47288e-56 1.03017e-55 1.09794e-55 1.14928e-55 1.18461e-55 1.20606e-55 1.21713e-55 1.22222e-55 1.22602e-55 1.23289e-55 1.2463e-55 1.26846e-55 1.30004e-55 1.34023e-55 1.38694e-55 1.43718e-55 1.48761e-55 1.53502e-55 1.57683e-55 1.61141e-55 1.63827e-55 1.65799e-55 1.67202e-55 1.68238e-55 1.69126e-55 1.70068e-55 1.7122e-55 1.72675e-55 1.74454e-55 1.76516e-55 1.78762e-55 1.81051e-55 1.83218e-55 1.85083e-55 1.86466e-55 1.872e-55 1.8714e-55 1.86177e-55 1.84246e-55 1.81336e-55 1.77492e-55 1.72815e-55 1.67452e-55 1.61586e-55 1.55421e-55 1.49173e-55 1.43055e-55 1.37274e-55 1.32019e-55 1.27463e-55 1.23748e-55 1.20977e-55 1.19205e-55 1.18423e-55 1.18558e-55 1.19477e-55 1.20994e-55 1.22896e-55 1.2497e-55 1.27028e-55 1.2893e-55 1.30602e-55 1.32032e-55 1.33266e-55 1.34387e-55 1.35493e-55 1.36671e-55 1.37973e-55 1.39403e-55 1.40913e-55 1.42414e-55 1.43791e-55 1.44932e-55 1.45761e-55 1.4626e-55 1.46489e-55 1.46587e-55 1.46758e-55 1.47243e-55 1.48282e-55 1.50068e-55 1.52712e-55 1.56208e-55 1.60425e-55 1.65111e-55 1.69911e-55 1.74408e-55 1.78158e-55 1.80742e-55 1.81796e-55 1.81041e-55 1.78301e-55 1.73509e-55 1.66699e-55 1.58003e-55 1.47637e-55 1.35887e-55 1.23097e-55 1.09654e-55 9.59623e-56 8.2428e-56 6.943e-56 5.72974e-56 4.62894e-56 3.65813e-56 2.82604e-56 2.13296e-56 1.57202e-56 1.1309e-56 7.93834e-57 5.43582e-57 3.63032e-57 2.36435e-57 1.50152e-57 9.29811e-58 5.61446e-58 3.30597e-58 1.89849e-58 1.06339e-58 5.81052e-59 3.09783e-59 1.61179e-59 8.18573e-60 4.05892e-60 1.9655e-60 9.29736e-61 4.29718e-61 1.94117e-61 8.57281e-62 3.70241e-62 1.56413e-62 6.46564e-63 2.61594e-63 1.03621e-63 4.01969e-64 1.52753e-64 5.68805e-65 2.07604e-65 7.4289e-66 2.60707e-66 8.97505e-67 3.03175e-67 1.00516e-67 3.27174e-68 1.04576e-68 3.28325e-69 1.01275e-69 3.06992e-70 9.14719e-71 2.67967e-71 7.71982e-72 2.18753e-72 6.09673e-73 1.66507e-73 4.20363e-74 0 
0 2.74266e-104 1.80666e-103 1.15211e-102 7.27093e-102 4.54306e-101 2.8102e-100 1.72074e-99 1.0429e-98 6.25569e-98 3.71343e-97 2.18122e-96 1.26766e-95 7.28852e-95 4.14541e-94 2.33206e-93 1.2975e-92 7.13884e-92 3.88371e-91 2.0889e-90 1.11068e-89 5.83725e-89 3.03197e-88 1.55626e-87 7.89275e-87 3.95463e-86 1.95731e-85 9.56814e-85 4.61906e-84 2.20179e-83 1.03617e-82 4.81349e-82 2.20696e-81 9.9855e-81 4.45777e-80 1.96323e-79 8.52818e-79 3.65346e-78 1.54327e-77 6.42674e-77 2.63801e-76 1.06714e-75 4.25346e-75 1.67016e-74 6.45933e-74 2.46003e-73 9.22428e-73 3.40464e-72 1.23671e-71 4.42002e-71 1.55398e-70 5.37325e-70 1.82681e-69 6.10541e-69 2.00537e-68 6.47181e-68 2.05163e-67 6.38704e-67 1.95216e-66 5.85637e-66 1.72392e-65 4.9781e-65 1.40974e-64 3.91397e-64 1.06505e-63 2.83965e-63 7.41596e-63 1.89645e-62 4.74731e-62 1.16291e-61 2.78674e-61 6.53059e-61 1.49613e-60 3.34968e-60 7.32664e-60 1.56505e-59 3.26382e-59 6.64282e-59 1.31906e-58 2.55455e-58 4.82356e-58 8.87739e-58 1.59198e-57 2.78099e-57 4.73098e-57 7.83585e-57 1.2633e-56 1.98209e-56 3.02599e-56 4.49455e-56 6.49447e-56 9.12916e-56 1.24842e-55 1.66106e-55 2.1507e-55 2.71066e-55 3.32692e-55 3.97845e-55 4.63866e-55 5.27792e-55 5.86695e-55 6.38043e-55 6.80037e-55 7.11856e-55 7.33763e-55 7.47068e-55 7.53939e-55 7.57095e-55 7.59435e-55 7.63657e-55 7.71913e-55 7.85558e-55 8.05017e-55 8.2979e-55 8.58586e-55 8.8957e-55 9.20671e-55 9.49912e-55 9.75701e-55 9.97036e-55 1.01361e-54 1.02577e-54 1.03443e-54 1.04082e-54 1.0463e-54 1.05211e-54 1.05922e-54 1.06818e-54 1.07915e-54 1.09185e-54 1.10569e-54 1.1198e-54 1.13316e-54 1.14466e-54 1.15319e-54 1.15772e-54 1.15735e-54 1.15142e-54 1.13952e-54 1.12159e-54 1.0979e-54 1.06906e-54 1.03599e-54 9.99818e-55 9.61798e-55 9.23259e-55 8.8552e-55 8.49849e-55 8.17429e-55 7.89315e-55 7.66389e-55 7.49292e-55 7.38355e-55 7.33536e-55 7.34384e-55 7.40067e-55 7.49444e-55 7.612e-55 7.74015e-55 7.86727e-55 7.98478e-55 8.088e-55 8.17623e-55 8.25232e-55 8.32143e-55 8.3896e-55 8.46217e-55 8.54239e-55 8.63054e-55 8.72371e-55 8.81629e-55 8.90123e-55 8.97167e-55 9.02284e-55 9.05366e-55 9.0678e-55 9.07382e-55 9.08431e-55 9.11414e-55 9.17808e-55 9.2881e-55 9.45095e-55 9.66636e-55 9.92627e-55 1.0215e-54 1.05109e-54 1.0788e-54 1.10192e-54 1.11784e-54 1.12432e-54 1.11965e-54 1.10273e-54 1.07315e-54 1.0311e-54 9.77408e-55 9.13383e-55 8.40796e-55 7.61768e-55 6.78675e-55 5.94026e-55 5.10325e-55 4.29918e-55 3.54846e-55 2.86713e-55 2.26613e-55 1.75089e-55 1.32164e-55 9.74167e-56 7.00868e-56 4.92012e-56 3.36929e-56 2.25029e-56 1.46562e-56 9.30784e-57 5.76387e-57 3.48037e-57 2.04931e-57 1.1768e-57 6.59128e-58 3.60141e-58 1.91995e-58 9.98874e-59 5.07258e-59 2.51506e-59 1.2178e-59 5.76e-60 2.66199e-60 1.20239e-60 5.30963e-61 2.29289e-61 9.68565e-62 4.00337e-62 1.61957e-62 6.41471e-63 2.48818e-63 9.45455e-64 3.52027e-64 1.28472e-64 4.59688e-65 1.61308e-65 5.55275e-66 1.87557e-66 6.21795e-67 2.02377e-67 6.46828e-68 2.03066e-68 6.26342e-69 1.89854e-69 5.65668e-70 1.65707e-70 4.77367e-71 1.35266e-71 3.76983e-72 1.02955e-72 2.59918e-73 0 
0 1.68099e-103 1.10715e-102 7.0593e-102 4.45446e-101 2.78286e-100 1.72115e-99 1.05375e-98 6.38564e-98 3.82984e-97 2.27313e-96 1.33503e-95 7.75783e-95 4.4599e-94 2.5363e-93 1.42667e-92 7.93674e-92 4.36629e-91 2.37512e-90 1.27735e-89 6.79106e-89 3.56874e-88 1.85348e-87 9.51278e-87 4.82409e-86 2.41689e-85 1.19612e-84 5.84667e-84 2.8223e-83 1.34523e-82 6.33029e-82 2.94052e-81 1.34814e-80 6.09938e-80 2.72278e-79 1.19907e-78 5.20852e-78 2.23124e-77 9.42474e-77 3.92471e-76 1.61096e-75 6.5166e-75 2.59739e-74 1.01988e-73 3.94438e-73 1.50222e-72 5.63285e-72 2.07909e-71 7.55225e-71 2.69926e-70 9.49029e-70 3.28159e-69 1.11573e-68 3.72906e-68 1.2249e-67 3.95327e-67 1.2533e-66 3.90199e-66 1.1927e-65 3.57832e-65 1.05343e-64 3.0422e-64 8.61594e-64 2.39234e-63 6.51059e-63 1.73604e-62 4.53431e-62 1.15967e-61 2.9033e-61 7.11285e-61 1.7047e-60 3.99538e-60 9.15443e-60 2.04985e-59 4.48415e-59 9.57991e-59 1.9981e-58 4.06726e-58 8.07736e-58 1.56451e-57 2.95452e-57 5.43826e-57 9.75361e-57 1.70403e-56 2.89922e-56 4.80245e-56 7.74332e-56 1.21503e-55 1.85512e-55 2.75567e-55 3.98216e-55 5.59803e-55 7.65584e-55 1.01868e-54 1.31903e-54 1.66253e-54 2.04057e-54 2.44026e-54 2.84529e-54 3.23749e-54 3.59889e-54 3.91396e-54 4.17167e-54 4.36697e-54 4.50147e-54 4.5832e-54 4.62542e-54 4.64478e-54 4.65905e-54 4.68474e-54 4.73504e-54 4.81825e-54 4.93699e-54 5.0882e-54 5.26403e-54 5.45324e-54 5.64319e-54 5.8218e-54 5.97934e-54 6.10968e-54 6.21093e-54 6.28526e-54 6.33817e-54 6.37723e-54 6.4107e-54 6.44618e-54 6.48953e-54 6.54424e-54 6.61118e-54 6.68873e-54 6.7732e-54 6.85933e-54 6.94086e-54 7.01105e-54 7.06314e-54 7.09082e-54 7.08865e-54 7.05249e-54 6.9799e-54 6.87044e-54 6.72581e-54 6.54977e-54 6.34785e-54 6.12692e-54 5.89471e-54 5.6593e-54 5.42874e-54 5.2108e-54 5.0127e-54 4.8409e-54 4.70079e-54 4.59632e-54 4.5295e-54 4.50009e-54 4.50534e-54 4.54016e-54 4.59757e-54 4.66952e-54 4.74794e-54 4.82571e-54 4.89759e-54 4.96069e-54 5.01461e-54 5.06107e-54 5.10325e-54 5.14485e-54 5.18913e-54 5.23809e-54 5.29191e-54 5.3488e-54 5.40536e-54 5.45726e-54 5.50032e-54 5.5316e-54 5.55044e-54 5.55909e-54 5.56275e-54 5.56912e-54 5.58728e-54 5.62625e-54 5.69335e-54 5.7927e-54 5.92415e-54 6.08276e-54 6.25902e-54 6.43961e-54 6.60877e-54 6.74986e-54 6.84701e-54 6.88652e-54 6.85788e-54 6.75444e-54 6.57355e-54 6.31648e-54 5.98812e-54 5.59651e-54 5.15243e-54 4.66882e-54 4.16018e-54 3.64186e-54 3.12921e-54 2.63659e-54 2.17652e-54 1.75887e-54 1.39038e-54 1.07439e-54 8.11086e-55 5.97904e-55 4.30203e-55 3.02027e-55 2.0684e-55 1.38151e-55 8.99806e-56 5.71459e-56 3.53876e-56 2.13677e-56 1.25814e-56 7.22455e-57 4.04628e-57 2.21072e-57 1.17848e-57 6.13073e-58 3.11312e-58 1.5434e-58 7.47247e-59 3.53402e-59 1.63309e-59 7.37574e-60 3.2567e-60 1.40621e-60 5.9395e-61 2.45471e-61 9.92955e-62 3.93243e-62 1.52518e-62 5.79478e-63 2.15739e-63 7.87267e-64 2.81667e-64 9.88305e-65 3.40178e-65 1.14894e-65 3.8087e-66 1.23954e-66 3.96149e-67 1.2436e-67 3.83556e-68 1.16256e-68 3.46366e-69 1.0146e-69 2.92274e-70 8.28154e-71 2.30799e-71 6.30305e-72 1.59122e-72 0 
0 1.01978e-102 6.71563e-102 4.28132e-101 2.70115e-100 1.68727e-99 1.0434e-98 6.3872e-98 3.87009e-97 2.32081e-96 1.3773e-95 8.088e-95 4.69934e-94 2.70128e-93 1.53601e-92 8.63906e-92 4.8055e-91 2.64339e-90 1.43777e-89 7.73161e-89 4.11012e-88 2.15968e-87 1.12157e-86 5.75579e-86 2.91861e-85 1.46212e-84 7.23546e-84 3.53647e-83 1.707e-82 8.13575e-82 3.82824e-81 1.77818e-80 8.15196e-80 3.68802e-79 1.64627e-78 7.24963e-78 3.14898e-77 1.34893e-76 5.69771e-76 2.37263e-75 9.73866e-75 3.93941e-74 1.57016e-73 6.16535e-73 2.38444e-72 9.08126e-72 3.40524e-71 1.2569e-70 4.56578e-70 1.63191e-69 5.73783e-69 1.98413e-68 6.7463e-68 2.25491e-67 7.40724e-67 2.39078e-66 7.58e-66 2.36011e-65 7.21463e-65 2.1647e-64 6.37327e-64 1.84072e-63 5.21371e-63 1.44782e-62 3.94056e-62 1.05087e-61 2.74505e-61 7.02147e-61 1.75809e-60 4.30774e-60 1.03255e-59 2.42037e-59 5.54646e-59 1.24213e-58 2.71761e-58 5.80672e-58 1.21129e-57 2.46602e-57 4.89808e-57 9.48845e-57 1.79211e-56 3.2991e-56 5.91778e-56 1.03402e-55 1.75948e-55 2.91485e-55 4.70034e-55 7.37623e-55 1.12632e-54 1.67323e-54 2.41814e-54 3.39962e-54 4.64962e-54 6.18711e-54 8.01173e-54 1.00985e-53 1.23953e-53 1.48236e-53 1.72845e-53 1.96674e-53 2.18634e-53 2.37779e-53 2.53441e-53 2.65312e-53 2.7349e-53 2.7846e-53 2.81028e-53 2.82204e-53 2.83064e-53 2.84611e-53 2.87645e-53 2.92669e-53 2.99843e-53 3.08983e-53 3.19614e-53 3.31056e-53 3.42545e-53 3.53348e-53 3.62878e-53 3.70763e-53 3.76888e-53 3.81385e-53 3.84587e-53 3.8695e-53 3.88974e-53 3.91119e-53 3.9374e-53 3.97046e-53 4.01092e-53 4.05779e-53 4.10884e-53 4.1609e-53 4.21019e-53 4.25262e-53 4.28413e-53 4.30088e-53 4.2996e-53 4.27776e-53 4.23391e-53 4.16776e-53 4.08034e-53 3.97391e-53 3.85182e-53 3.71821e-53 3.57777e-53 3.43537e-53 3.29589e-53 3.16404e-53 3.04417e-53 2.94021e-53 2.85543e-53 2.79221e-53 2.75179e-53 2.73402e-53 2.73724e-53 2.75836e-53 2.79317e-53 2.83678e-53 2.8843e-53 2.93141e-53 2.97495e-53 3.01315e-53 3.04577e-53 3.07387e-53 3.09936e-53 3.12449e-53 3.15124e-53 3.18083e-53 3.21336e-53 3.24777e-53 3.28198e-53 3.31339e-53 3.33945e-53 3.35838e-53 3.3698e-53 3.37503e-53 3.37723e-53 3.38105e-53 3.392e-53 3.41552e-53 3.45604e-53 3.51606e-53 3.59549e-53 3.69135e-53 3.79788e-53 3.90703e-53 4.00928e-53 4.09456e-53 4.15327e-53 4.17712e-53 4.15974e-53 4.09711e-53 3.98759e-53 3.83195e-53 3.6331e-53 3.39591e-53 3.12687e-53 2.83379e-53 2.52547e-53 2.21118e-53 1.90023e-53 1.60134e-53 1.32212e-53 1.06859e-53 8.44828e-54 6.52911e-54 4.92959e-54 3.6343e-54 2.61518e-54 1.83614e-54 1.25753e-54 8.39961e-55 5.47099e-55 3.47462e-55 2.15166e-55 1.29919e-55 7.64948e-56 4.39233e-56 2.4599e-56 1.3439e-56 7.1635e-57 3.72631e-57 1.89201e-57 9.37916e-58 4.54053e-58 2.14717e-58 9.9211e-59 4.48029e-59 1.97801e-59 8.5399e-60 3.60663e-60 1.4904e-60 6.02811e-61 2.38706e-61 9.25712e-62 3.51676e-62 1.30915e-62 4.77679e-63 1.70886e-63 5.99542e-64 2.06345e-64 6.9686e-65 2.30988e-65 7.5169e-66 2.40217e-66 7.54039e-67 2.3255e-67 7.04813e-68 2.09977e-68 6.15048e-69 1.77168e-69 5.01982e-70 1.39893e-70 3.82032e-71 9.64428e-72 0 
0 6.12278e-102 4.03154e-101 2.5698e-100 1.6211e-99 1.01248e-98 6.26029e-98 3.83173e-97 2.32139e-96 1.39191e-95 8.25935e-95 4.8496e-94 2.8174e-93 1.61931e-92 9.20677e-92 5.17763e-91 2.87976e-90 1.58392e-89 8.61424e-89 4.63186e-88 2.46206e-87 1.29358e-86 6.71725e-86 3.44695e-85 1.74772e-84 8.75475e-84 4.33208e-83 2.11724e-82 1.02189e-81 4.87016e-81 2.2915e-80 1.06432e-79 4.87909e-79 2.20725e-78 9.85238e-78 4.33852e-77 1.88444e-76 8.07218e-76 3.40952e-75 1.41976e-74 5.82749e-74 2.35728e-73 9.3956e-73 3.68927e-72 1.42684e-71 5.43426e-71 2.03775e-70 7.5217e-70 2.7324e-69 9.76657e-69 3.4341e-68 1.18756e-67 4.03809e-67 1.34979e-66 4.43428e-66 1.43132e-65 4.53838e-65 1.41319e-64 4.32037e-64 1.29642e-63 3.81728e-63 1.10262e-62 3.12344e-62 8.67461e-62 2.36128e-61 6.29786e-61 1.64532e-60 4.20907e-60 1.05405e-59 2.58303e-59 6.19233e-59 1.45174e-58 3.32727e-58 7.45256e-58 1.63077e-57 3.485e-57 7.2709e-57 1.48048e-56 2.94102e-56 5.69813e-56 1.07638e-55 1.98181e-55 3.55538e-55 6.21317e-55 1.05737e-54 1.75192e-54 2.82539e-54 4.43437e-54 6.7718e-54 1.0061e-53 1.45413e-53 2.04449e-53 2.79642e-53 3.72134e-53 4.81903e-53 6.07449e-53 7.45631e-53 8.91735e-53 1.0398e-52 1.18318e-52 1.31531e-52 1.43052e-52 1.52477e-52 1.59622e-52 1.64544e-52 1.67537e-52 1.69083e-52 1.69789e-52 1.70302e-52 1.71224e-52 1.73035e-52 1.76038e-52 1.8033e-52 1.85801e-52 1.92165e-52 1.99016e-52 2.05896e-52 2.12367e-52 2.18074e-52 2.22798e-52 2.26467e-52 2.29161e-52 2.31079e-52 2.32494e-52 2.33706e-52 2.3499e-52 2.36559e-52 2.38537e-52 2.40958e-52 2.43763e-52 2.46818e-52 2.49934e-52 2.52884e-52 2.55424e-52 2.57311e-52 2.58316e-52 2.5824e-52 2.56936e-52 2.54312e-52 2.50354e-52 2.45122e-52 2.38751e-52 2.31441e-52 2.23441e-52 2.1503e-52 2.06502e-52 1.98147e-52 1.90248e-52 1.83067e-52 1.76838e-52 1.71757e-52 1.6797e-52 1.65549e-52 1.64486e-52 1.64681e-52 1.65951e-52 1.6804e-52 1.70658e-52 1.73509e-52 1.76335e-52 1.78945e-52 1.81235e-52 1.8319e-52 1.84872e-52 1.86397e-52 1.879e-52 1.895e-52 1.9127e-52 1.93218e-52 1.95278e-52 1.97328e-52 1.99209e-52 2.00771e-52 2.01906e-52 2.0259e-52 2.02903e-52 2.03034e-52 2.03262e-52 2.03915e-52 2.0532e-52 2.07743e-52 2.11333e-52 2.16085e-52 2.21822e-52 2.28197e-52 2.3473e-52 2.4085e-52 2.45954e-52 2.49467e-52 2.50893e-52 2.4985e-52 2.46094e-52 2.39529e-52 2.30198e-52 2.18275e-52 2.0405e-52 1.8791e-52 1.70324e-52 1.51816e-52 1.32945e-52 1.14269e-52 9.63112e-53 7.95308e-53 6.42895e-53 5.08348e-53 3.9292e-53 2.96697e-53 2.1876e-53 1.5743e-53 1.10541e-53 7.57117e-54 5.05732e-54 3.29411e-54 2.0921e-54 1.29553e-54 7.82233e-55 4.60554e-55 2.64437e-55 1.48088e-55 8.08983e-56 4.31183e-56 2.24273e-56 1.13862e-56 5.64383e-57 2.73193e-57 1.29175e-57 5.96789e-58 2.69473e-58 1.18956e-58 5.13516e-59 2.16844e-59 8.95971e-60 3.62342e-60 1.43466e-60 5.56298e-61 2.11311e-61 7.86534e-62 2.86956e-62 1.02645e-62 3.60085e-63 1.23918e-63 4.18451e-64 1.38691e-64 4.51293e-65 1.44207e-65 4.5263e-66 1.39583e-66 4.2302e-67 1.26018e-67 3.69099e-68 1.06315e-68 3.01217e-69 8.39397e-70 2.29222e-70 5.78648e-71 0 