# vtk DataFile Version 3.0
Gray-Scott Simulation Output
ASCII
DATASET STRUCTURED_POINTS
DIMENSIONS 256 256 1
SPACING 1.0 1.0 1.0
ORIGIN 0 0 0
POINT_DATA 65536
SCALARS u double
LOOKUP_TABLE default
0 0 0 0 0 0 0 0 0 0 0 0 0 0 0 0 0 0 0 0 0 0 0 0 0 0 0 0 0 0 0 0 0 0 0 0 0 0 0 0 0 0 0 0 0 0 0 0 0 0 0 0 0 0 0 0 0 0 0 0 0 0 0 0 0 0 0 0 0 0 0 0 0 0 0 0 0 0 0 0 0 0 0 0 0 0 0 0 0 0 0 0 0 0 0 0 0 0 0 0 0 0 0 0 0 0 0 0 0 0 0 0 0 0 0 0 0 0 0 0 0 0 0 0 0 0 0 0 0 0 0 0 0 0 0 0 0 0 0 0 0 0 0 0 0 0 0 0 0 0 0 0 0 0 0 0 0 0 0 0 0 0 0 0 0 0 0 0 0 0 0 0 0 0 0 0 0 0 0 0 0 0 0 0 0 0 0 0 0 0 0 0 0 0 0 0 0 0 0 0 0 0 0 0 0 0 0 0 0 0 0 0 0 0 0 0 0 0 0 0 0 0 0 0 0 0 0 0 0 0 0 0 0 0 0 0 0 0 0 0 0 0 0 0 0 0 0 0 0 0 0 0 0 0 0 0 
0 1.17989e-73 3.82164e-73 1.11395e-72 3.18807e-72 9.04273e-72 2.54465e-71 7.10469e-71 1.96806e-70 5.40858e-70 1.47456e-69 3.98797e-69 1.06986e-68 2.8469e-68 7.51376e-68 1.96681e-67 5.10581e-67 1.31444e-66 3.35555e-66 8.494e-66 2.13187e-65 5.30501e-65 1.30876e-64 3.20082e-64 7.76e-64 1.86481e-63 4.44177e-63 1.04857e-62 2.45319e-62 5.68765e-62 1.30669e-61 2.97456e-61 6.70898e-61 1.49915e-60 3.31861e-60 7.27719e-60 1.58066e-59 3.40054e-59 7.24541e-59 1.52881e-58 3.1944e-58 6.60902e-58 1.35384e-57 2.74565e-57 5.51239e-57 1.09552e-56 2.15502e-56 4.19567e-56 8.0842e-56 1.54143e-55 2.90823e-55 5.42897e-55 1.00266e-54 1.83193e-54 3.31088e-54 5.91866e-54 1.04644e-53 1.82972e-53 3.16371e-53 5.409e-53 9.14346e-53 1.52807e-52 2.52455e-52 4.12284e-52 6.655e-52 1.06171e-51 1.67394e-51 2.60806e-51 4.01521e-51 6.10775e-51 9.1793e-51 1.3629e-50 1.99904e-50 2.89636e-50 4.14512e-50 5.85939e-50 8.18047e-50 1.12797e-49 1.53601e-49 2.06566e-49 2.74332e-49 3.59786e-49 4.65971e-49 5.95964e-49 7.5272e-49 9.3888e-49 1.15655e-48 1.40709e-48 1.69086e-48 2.00707e-48 2.35358e-48 2.72687e-48 3.12203e-48 3.53286e-48 3.95211e-48 4.37175e-48 4.78339e-48 5.17871e-48 5.54994e-48 5.89026e-48 6.19422e-48 6.45804e-48 6.67978e-48 6.85936e-48 6.99852e-48 7.10061e-48 7.17021e-48 7.21284e-48 7.23447e-48 7.24113e-48 7.23857e-48 7.23188e-48 7.22533e-48 7.22222e-48 7.22482e-48 7.23444e-48 7.25156e-48 7.27594e-48 7.30686e-48 7.34325e-48 7.38387e-48 7.42745e-48 7.47278e-48 7.51874e-48 7.56435e-48 7.60874e-48 7.6511e-48 7.69063e-48 7.72656e-48 7.75801e-48 7.78408e-48 7.80378e-48 7.81608e-48 7.81998e-48 7.81452e-48 7.79891e-48 7.77253e-48 7.73506e-48 7.68654e-48 7.62734e-48 7.55825e-48 7.48045e-48 7.39546e-48 7.30513e-48 7.21151e-48 7.11681e-48 7.02328e-48 6.9331e-48 6.8483e-48 6.77066e-48 6.70162e-48 6.64228e-48 6.59331e-48 6.55497e-48 6.52717e-48 6.50944e-48 6.50106e-48 6.50106e-48 6.50838e-48 6.52185e-48 6.54034e-48 6.56277e-48 6.58816e-48 6.61569e-48 6.64467e-48 6.67458e-48 6.70507e-48 6.73594e-48 6.76712e-48 6.79872e-48 6.83093e-48 6.86408e-48 6.89859e-48 6.93494e-48 6.97364e-48 7.0152e-48 7.06e-48 7.10832e-48 7.16015e-48 7.2152e-48 7.27275e-48 7.33165e-48 7.39023e-48 7.44631e-48 7.4972e-48 7.53974e-48 7.57043e-48 7.58547e-48 7.58095e-48 7.553e-48 7.49795e-48 7.41253e-48 7.29405e-48 7.14054e-48 6.95091e-48 6.72507e-48 6.46397e-48 6.16965e-48 5.84523e-48 5.49478e-48 5.12322e-48 4.73614e-48 4.33961e-48 3.93987e-48 3.54316e-48 3.15541e-48 2.78205e-48 2.42782e-48 2.09658e-48 1.79129e-48 1.5139e-48 1.26542e-48 1.04596e-48 8.54834e-49 6.90685e-49 5.51655e-49 4.35517e-49 3.39829e-49 2.62062e-49 1.99718e-49 1.50411e-49 1.11938e-49 8.23195e-50 5.98204e-50 4.29552e-50 3.04791e-50 2.13705e-50 1.48067e-50 1.01378e-50 6.85935e-51 4.58659e-51 3.03096e-51 1.97958e-51 1.27787e-51 8.15348e-52 5.14238e-52 3.20608e-52 1.97605e-52 1.20409e-52 7.25415e-53 4.32123e-53 2.54536e-53 1.48266e-53 8.54108e-54 4.86624e-54 2.74228e-54 1.52862e-54 8.42913e-55 4.59812e-55 2.48127e-55 1.32405e-55 6.97496e-56 3.60252e-56 1.77294e-56 7.23945e-57 0 
0 3.8225e-73 1.23837e-72 3.61057e-72 1.03361e-71 2.93258e-71 8.25471e-71 2.3054e-70 6.38803e-70 1.75608e-69 4.78914e-69 1.29564e-68 3.47696e-68 9.25516e-68 2.44351e-67 6.39833e-67 1.66157e-66 4.27903e-66 1.09276e-65 2.76713e-65 6.94767e-65 1.72952e-64 4.26842e-64 1.04432e-63 2.53283e-63 6.08909e-63 1.45094e-62 3.42663e-62 8.02016e-62 1.86023e-61 4.27556e-61 9.73713e-61 2.19712e-60 4.91172e-60 1.08778e-59 2.38641e-59 5.18582e-59 1.11616e-58 2.37928e-58 5.02273e-58 1.04998e-57 2.17337e-57 4.45422e-57 9.03772e-57 1.81537e-56 3.60956e-56 7.10391e-56 1.38375e-55 2.66751e-55 5.08867e-55 9.6055e-55 1.79399e-54 3.31487e-54 6.05939e-54 1.09565e-53 1.95955e-53 3.46619e-53 6.06349e-53 1.0489e-52 1.79411e-52 3.03414e-52 5.07292e-52 8.3846e-52 1.36986e-51 2.21209e-51 3.53047e-51 5.56841e-51 8.67896e-51 1.33663e-50 2.03391e-50 3.05773e-50 4.54135e-50 6.66293e-50 9.65633e-50 1.3823e-49 1.95441e-49 2.72916e-49 3.76379e-49 5.12613e-49 6.89458e-49 9.15737e-49 1.20108e-48 1.55562e-48 1.98963e-48 2.51292e-48 3.13426e-48 3.8606e-48 4.69636e-48 5.64263e-48 6.69659e-48 7.85095e-48 9.09374e-48 1.04083e-47 1.17739e-47 1.31659e-47 1.45575e-47 1.59206e-47 1.72273e-47 1.84516e-47 1.95708e-47 2.0567e-47 2.14277e-47 2.21467e-47 2.2724e-47 2.31659e-47 2.34838e-47 2.36933e-47 2.38131e-47 2.38635e-47 2.38649e-47 2.38365e-47 2.37956e-47 2.37563e-47 2.37298e-47 2.37237e-47 2.37422e-47 2.37869e-47 2.3857e-47 2.39499e-47 2.4062e-47 2.41892e-47 2.4327e-47 2.44714e-47 2.46185e-47 2.47652e-47 2.49083e-47 2.50452e-47 2.51732e-47 2.52897e-47 2.53919e-47 2.54767e-47 2.55409e-47 2.55812e-47 2.55941e-47 2.55766e-47 2.55261e-47 2.54405e-47 2.53188e-47 2.5161e-47 2.49684e-47 2.47436e-47 2.44903e-47 2.42137e-47 2.39195e-47 2.36147e-47 2.33063e-47 2.30017e-47 2.2708e-47 2.24319e-47 2.21792e-47 2.19545e-47 2.17614e-47 2.16021e-47 2.14774e-47 2.13871e-47 2.13295e-47 2.13024e-47 2.13026e-47 2.13265e-47 2.13704e-47 2.14305e-47 2.15035e-47 2.1586e-47 2.16754e-47 2.17695e-47 2.18666e-47 2.19656e-47 2.20658e-47 2.2167e-47 2.22696e-47 2.23743e-47 2.2482e-47 2.25943e-47 2.27127e-47 2.2839e-47 2.29747e-47 2.31213e-47 2.32796e-47 2.34499e-47 2.3631e-47 2.38209e-47 2.40157e-47 2.42102e-47 2.43973e-47 2.45682e-47 2.47126e-47 2.48192e-47 2.48753e-47 2.48683e-47 2.47853e-47 2.46141e-47 2.43438e-47 2.39655e-47 2.34722e-47 2.28603e-47 2.2129e-47 2.12811e-47 2.03232e-47 1.92652e-47 1.81201e-47 1.69041e-47 1.56355e-47 1.43341e-47 1.30205e-47 1.17154e-47 1.04384e-47 9.20758e-48 8.03874e-48 6.94488e-48 5.93592e-48 5.01855e-48 4.19626e-48 3.46958e-48 2.83636e-48 2.29228e-48 1.83126e-48 1.44601e-48 1.12848e-48 8.70357e-49 6.63369e-49 4.99633e-49 3.71853e-49 2.73469e-49 1.98726e-49 1.42696e-49 1.01246e-49 7.09836e-50 4.9177e-50 3.36665e-50 2.27761e-50 1.52272e-50 1.00609e-50 6.56973e-51 4.24006e-51 2.70478e-51 1.7055e-51 1.06304e-51 6.55027e-52 3.99026e-52 2.40327e-52 1.43118e-52 8.42754e-53 4.90743e-53 2.82606e-53 1.60959e-53 9.06744e-54 5.05265e-54 2.78514e-54 1.51875e-54 8.19259e-55 4.37008e-55 2.30127e-55 1.18817e-55 5.84559e-56 2.38639e-56 0 
0 1.1145e-72 3.61155e-72 1.05331e-71 3.01636e-71 8.56099e-71 2.41061e-70 6.73481e-70 1.86683e-69 5.13384e-69 1.40062e-68 3.79063e-68 1.01765e-67 2.70991e-67 7.15751e-67 1.87497e-66 4.87111e-66 1.25499e-65 3.20634e-65 8.12284e-65 2.04039e-64 5.08158e-64 1.2547e-63 3.07125e-63 7.45235e-63 1.79247e-62 4.27329e-62 1.00972e-61 2.36448e-61 5.4871e-61 1.26181e-60 2.87517e-60 6.4911e-60 1.45189e-59 3.21719e-59 7.06189e-59 1.53545e-58 3.30666e-58 7.05268e-58 1.4897e-57 3.11593e-57 6.45349e-57 1.32338e-56 2.68675e-56 5.39993e-56 1.07432e-55 2.11561e-55 4.12339e-55 7.95352e-55 1.51815e-54 2.8674e-54 5.35851e-54 9.90711e-54 1.81202e-53 3.27836e-53 5.86669e-53 1.03833e-52 1.81741e-52 3.1456e-52 5.38342e-52 9.10917e-52 1.52381e-51 2.51988e-51 4.11901e-51 6.65479e-51 1.0626e-50 1.67676e-50 2.61457e-50 4.02838e-50 6.13236e-50 9.22283e-50 1.37029e-49 2.01114e-49 2.9156e-49 4.17492e-49 5.90444e-49 8.24705e-49 1.1376e-48 1.54965e-48 2.08459e-48 2.7691e-48 3.63226e-48 4.70473e-48 6.01743e-48 7.59994e-48 9.47854e-48 1.1674e-47 1.41993e-47 1.70572e-47 2.02386e-47 2.37208e-47 2.7467e-47 3.1426e-47 3.55339e-47 3.97163e-47 4.3891e-47 4.79725e-47 5.18765e-47 5.55244e-47 5.88479e-47 6.17931e-47 6.43231e-47 6.64201e-47 6.80855e-47 6.93391e-47 7.02168e-47 7.07674e-47 7.10483e-47 7.11218e-47 7.10502e-47 7.08925e-47 7.07012e-47 7.05196e-47 7.03812e-47 7.03089e-47 7.03157e-47 7.04061e-47 7.05772e-47 7.08211e-47 7.11266e-47 7.14806e-47 7.18698e-47 7.22815e-47 7.2704e-47 7.31272e-47 7.35418e-47 7.39396e-47 7.43125e-47 7.46527e-47 7.49516e-47 7.52001e-47 7.53887e-47 7.55073e-47 7.55461e-47 7.54959e-47 7.53486e-47 7.50986e-47 7.47426e-47 7.42806e-47 7.37164e-47 7.30574e-47 7.23148e-47 7.15034e-47 7.06406e-47 6.97462e-47 6.88415e-47 6.7948e-47 6.70866e-47 6.62768e-47 6.55355e-47 6.48767e-47 6.43107e-47 6.3844e-47 6.3479e-47 6.32147e-47 6.30466e-47 6.29675e-47 6.29685e-47 6.30389e-47 6.31677e-47 6.33441e-47 6.35577e-47 6.37992e-47 6.40608e-47 6.43359e-47 6.46197e-47 6.49089e-47 6.52016e-47 6.54975e-47 6.57974e-47 6.61035e-47 6.6419e-47 6.67481e-47 6.70957e-47 6.74668e-47 6.78665e-47 6.82991e-47 6.87674e-47 6.92719e-47 6.98103e-47 7.03762e-47 7.0959e-47 7.15432e-47 7.21083e-47 7.26287e-47 7.30742e-47 7.34111e-47 7.36025e-47 7.36102e-47 7.33962e-47 7.29239e-47 7.21605e-47 7.10782e-47 6.96561e-47 6.78818e-47 6.57521e-47 6.32745e-47 6.04669e-47 5.73577e-47 5.39852e-47 5.03965e-47 4.66454e-47 4.2791e-47 3.88945e-47 3.50175e-47 3.1219e-47 2.75536e-47 2.40688e-47 2.08043e-47 1.77903e-47 1.50475e-47 1.25871e-47 1.04112e-47 8.51397e-48 6.88286e-48 5.50004e-48 4.34396e-48 3.39074e-48 2.61557e-48 1.99379e-48 1.50181e-48 1.1178e-48 8.22077e-49 5.97392e-49 4.28945e-49 3.04328e-49 2.13347e-49 1.47789e-49 1.01162e-49 6.84271e-50 4.57392e-50 3.02144e-50 1.97254e-50 1.27274e-50 8.11679e-51 5.11656e-51 3.1882e-51 1.96388e-51 1.19594e-51 7.20045e-52 4.28639e-52 2.5231e-52 1.46865e-52 8.45421e-53 4.81314e-53 2.71029e-53 1.50961e-53 8.31769e-54 4.53368e-54 2.4445e-54 1.30336e-54 6.86036e-55 3.54054e-55 1.74122e-55 7.10635e-56 0 
0 3.19057e-72 1.03419e-71 3.01721e-71 8.64341e-71 2.45405e-70 6.91269e-70 1.93201e-69 5.3574e-69 1.47388e-68 4.02265e-68 1.08913e-67 2.92515e-67 7.79272e-67 2.05912e-66 5.3964e-66 1.40259e-65 3.61528e-65 9.2408e-65 2.34213e-64 5.88605e-64 1.46663e-63 3.62307e-63 8.87294e-63 2.15411e-62 5.18381e-62 1.23648e-61 2.92317e-61 6.84895e-61 1.59026e-60 3.65898e-60 8.34202e-60 1.8844e-59 4.21731e-59 9.35041e-59 2.05366e-58 4.46787e-58 9.62751e-58 2.05466e-57 4.34256e-57 9.08869e-57 1.88354e-56 3.86486e-56 7.85137e-56 1.57898e-55 3.14338e-55 6.19396e-55 1.20798e-54 2.33151e-54 4.45314e-54 8.41612e-54 1.57376e-53 2.91147e-53 5.3284e-53 9.64623e-53 1.72726e-52 3.05889e-52 5.35721e-52 9.27783e-52 1.58874e-51 2.6898e-51 4.50211e-51 7.44908e-51 1.21828e-50 1.96931e-50 3.14609e-50 4.96687e-50 7.7485e-50 1.19438e-49 1.81898e-49 2.73681e-49 4.06781e-49 5.97241e-49 8.66134e-49 1.24063e-48 1.75508e-48 2.45205e-48 3.38314e-48 4.60948e-48 6.2017e-48 8.23919e-48 1.08085e-47 1.40007e-47 1.79075e-47 2.26166e-47 2.82055e-47 3.47351e-47 4.22426e-47 5.07353e-47 6.01839e-47 7.05188e-47 8.1628e-47 9.33572e-47 1.05514e-46 1.17874e-46 1.30191e-46 1.4221e-46 1.53679e-46 1.64364e-46 1.74062e-46 1.82616e-46 1.89918e-46 1.95917e-46 2.00622e-46 2.04095e-46 2.06448e-46 2.07828e-46 2.08411e-46 2.08385e-46 2.07937e-46 2.07246e-46 2.06468e-46 2.05733e-46 2.05141e-46 2.04761e-46 2.0463e-46 2.04761e-46 2.05145e-46 2.05756e-46 2.06562e-46 2.07522e-46 2.08596e-46 2.09744e-46 2.10932e-46 2.12129e-46 2.13307e-46 2.14441e-46 2.15508e-46 2.16482e-46 2.17341e-46 2.18056e-46 2.186e-46 2.18943e-46 2.19058e-46 2.18916e-46 2.18495e-46 2.17778e-46 2.16755e-46 2.15427e-46 2.13804e-46 2.11907e-46 2.09769e-46 2.07432e-46 2.04947e-46 2.0237e-46 1.99764e-46 1.97189e-46 1.94708e-46 1.92375e-46 1.9024e-46 1.88344e-46 1.86715e-46 1.85372e-46 1.84322e-46 1.83563e-46 1.83081e-46 1.82855e-46 1.82859e-46 1.83063e-46 1.83434e-46 1.83942e-46 1.84556e-46 1.8525e-46 1.86001e-46 1.86791e-46 1.87605e-46 1.88435e-46 1.89275e-46 1.90124e-46 1.90985e-46 1.91864e-46 1.92771e-46 1.93718e-46 1.9472e-46 1.95792e-46 1.96948e-46 1.98202e-46 1.99563e-46 2.01033e-46 2.02606e-46 2.04264e-46 2.05978e-46 2.07704e-46 2.09384e-46 2.10943e-46 2.12295e-46 2.13342e-46 2.13977e-46 2.14089e-46 2.13567e-46 2.12301e-46 2.10195e-46 2.07166e-46 2.03149e-46 1.98105e-46 1.92021e-46 1.84915e-46 1.76837e-46 1.67865e-46 1.5811e-46 1.47706e-46 1.3681e-46 1.25592e-46 1.14234e-46 1.02914e-46 9.18089e-47 8.10784e-47 7.08647e-47 6.1286e-47 5.24336e-47 4.43705e-47 3.71315e-47 3.07247e-47 2.51346e-47 2.03257e-47 1.62467e-47 1.28348e-47 1.00204e-47 7.73092e-48 5.89388e-48 4.43997e-48 3.30487e-48 2.43062e-48 1.76629e-48 1.26821e-48 8.99713e-49 6.30678e-49 4.36828e-49 2.98967e-49 2.0219e-49 1.35124e-49 8.92408e-50 5.82464e-50 3.75725e-50 2.39546e-50 1.50956e-50 9.40327e-51 5.79029e-51 3.52485e-51 2.12143e-51 1.26239e-51 7.42786e-52 4.32184e-52 2.4868e-52 1.41517e-52 7.9653e-53 4.4346e-53 2.44227e-53 1.33057e-53 7.17089e-54 3.82155e-54 2.01056e-54 1.03715e-54 5.09859e-55 2.08025e-55 0 
0 9.0524e-72 2.93505e-71 8.56586e-71 2.45475e-70 6.97215e-70 1.96469e-69 5.49319e-69 1.52385e-68 4.19396e-68 1.14512e-67 3.10172e-67 8.334e-67 2.22118e-66 5.87175e-66 1.53952e-65 4.00324e-65 1.03234e-64 2.63996e-64 6.69436e-64 1.68319e-63 4.19611e-63 1.03711e-62 2.54119e-62 6.17253e-62 1.48619e-61 3.54688e-61 8.38979e-61 1.96681e-60 4.5693e-60 1.05193e-59 2.39965e-59 5.42379e-59 1.21457e-58 2.69448e-58 5.92155e-58 1.28905e-57 2.77939e-57 5.93532e-57 1.25522e-56 2.62875e-56 5.45127e-56 1.11927e-55 2.27521e-55 4.5786e-55 9.12077e-55 1.79839e-54 3.50959e-54 6.77821e-54 1.29546e-53 2.44991e-53 4.58411e-53 8.48607e-53 1.55406e-52 2.81516e-52 5.04401e-52 8.93822e-52 1.56636e-51 2.71433e-51 4.6508e-51 7.87862e-51 1.31946e-50 2.18437e-50 3.57445e-50 5.78108e-50 9.2404e-50 1.45956e-49 2.27807e-49 3.51313e-49 5.3527e-49 8.05698e-49 1.19802e-48 1.7596e-48 2.55272e-48 3.65764e-48 5.17589e-48 7.23326e-48 9.98223e-48 1.36034e-47 1.83055e-47 2.43229e-47 3.1911e-47 4.13382e-47 5.28748e-47 6.6778e-47 8.3275e-47 1.02543e-46 1.24688e-46 1.49727e-46 1.77568e-46 2.08e-46 2.40684e-46 2.75158e-46 3.10847e-46 3.47082e-46 3.83131e-46 4.18236e-46 4.5165e-46 4.82685e-46 5.10746e-46 5.35368e-46 5.56243e-46 5.73233e-46 5.86372e-46 5.95857e-46 6.02025e-46 6.05329e-46 6.06294e-46 6.05484e-46 6.03462e-46 6.00758e-46 5.97839e-46 5.95092e-46 5.92811e-46 5.91197e-46 5.90361e-46 5.90339e-46 5.911e-46 5.92569e-46 5.94643e-46 5.97201e-46 6.0012e-46 6.03286e-46 6.0659e-46 6.0994e-46 6.13254e-46 6.16455e-46 6.19475e-46 6.22241e-46 6.24683e-46 6.26722e-46 6.28276e-46 6.29262e-46 6.29596e-46 6.29201e-46 6.28009e-46 6.25972e-46 6.23061e-46 6.19277e-46 6.14649e-46 6.09238e-46 6.03137e-46 5.96466e-46 5.89371e-46 5.82015e-46 5.74573e-46 5.67223e-46 5.60138e-46 5.53479e-46 5.47387e-46 5.41975e-46 5.37328e-46 5.335e-46 5.3051e-46 5.28348e-46 5.26977e-46 5.26338e-46 5.26353e-46 5.26938e-46 5.27999e-46 5.29447e-46 5.31198e-46 5.33174e-46 5.35311e-46 5.37557e-46 5.39873e-46 5.42231e-46 5.44618e-46 5.47032e-46 5.49481e-46 5.51983e-46 5.54567e-46 5.5727e-46 5.60132e-46 5.63199e-46 5.66516e-46 5.70121e-46 5.74042e-46 5.78288e-46 5.82844e-46 5.87664e-46 5.92665e-46 5.97723e-46 6.02673e-46 6.07306e-46 6.11375e-46 6.14598e-46 6.16668e-46 6.17262e-46 6.16055e-46 6.12734e-46 6.07009e-46 5.98632e-46 5.87411e-46 5.73221e-46 5.56014e-46 5.35833e-46 5.12806e-46 4.87156e-46 4.59192e-46 4.29297e-46 3.97921e-46 3.65558e-46 3.32731e-46 2.99965e-46 2.6777e-46 2.3662e-46 2.06934e-46 1.79062e-46 1.53277e-46 1.29769e-46 1.08645e-46 8.99351e-47 7.3599e-47 5.95369e-47 4.76022e-47 3.76148e-47 2.93729e-47 2.26655e-47 1.7282e-47 1.30201e-47 9.69205e-48 7.12838e-48 5.18006e-48 3.71918e-48 2.63835e-48 1.84924e-48 1.28069e-48 8.76375e-49 5.92582e-49 3.95945e-49 2.61436e-49 1.70594e-49 1.10013e-49 7.01193e-50 4.41737e-50 2.75073e-50 1.69324e-50 1.03038e-50 6.19901e-51 3.68736e-51 2.16874e-51 1.26133e-51 7.25457e-52 4.12654e-52 2.32158e-52 1.29192e-52 7.11161e-53 3.87262e-53 2.08607e-53 1.11118e-53 5.84318e-54 3.01281e-54 1.48047e-54 6.03855e-55 0 
0 2.5481e-71 8.26404e-71 2.41267e-70 6.91664e-70 1.96526e-69 5.54007e-69 1.54959e-68 4.30039e-68 1.18405e-67 3.23429e-67 8.76424e-67 2.35589e-66 6.28168e-66 1.66133e-65 4.35786e-65 1.13371e-64 2.92497e-64 7.48352e-64 1.89859e-63 4.7761e-63 1.19126e-62 2.94584e-62 7.22189e-62 1.75513e-61 4.22821e-61 1.00964e-60 2.38954e-60 5.60493e-60 1.30289e-59 3.00123e-59 6.85038e-59 1.54927e-58 3.47143e-58 7.70596e-58 1.69455e-57 3.69113e-57 7.96364e-57 1.70169e-56 3.6011e-56 7.54646e-56 1.56593e-55 3.21729e-55 6.5443e-55 1.31783e-54 2.6269e-54 5.18302e-54 1.01215e-53 1.95609e-53 3.74098e-53 7.0794e-53 1.32553e-52 2.45541e-52 4.49954e-52 8.15613e-52 1.4623e-51 2.5929e-51 4.54674e-51 7.88388e-51 1.35167e-50 2.29115e-50 3.83931e-50 6.35967e-50 1.04127e-49 1.68499e-49 2.6947e-49 4.25857e-49 6.65004e-49 1.02603e-48 1.564e-48 2.35518e-48 3.50341e-48 5.14768e-48 7.4706e-48 1.07077e-47 1.5157e-47 2.11876e-47 2.9247e-47 3.98651e-47 5.36541e-47 7.13014e-47 9.35555e-47 1.21202e-46 1.55031e-46 1.95793e-46 2.44148e-46 3.00608e-46 3.65474e-46 4.3878e-46 5.20242e-46 6.09221e-46 7.04705e-46 8.05318e-46 9.09349e-46 1.01482e-45 1.11957e-45 1.22136e-45 1.318e-45 1.40747e-45 1.48804e-45 1.55835e-45 1.61753e-45 1.66521e-45 1.7015e-45 1.72702e-45 1.74281e-45 1.75022e-45 1.75081e-45 1.74628e-45 1.73829e-45 1.72841e-45 1.71803e-45 1.70827e-45 1.70002e-45 1.69385e-45 1.69008e-45 1.68882e-45 1.68996e-45 1.69329e-45 1.69848e-45 1.70517e-45 1.713e-45 1.72162e-45 1.73072e-45 1.74001e-45 1.74924e-45 1.7582e-45 1.76668e-45 1.77447e-45 1.78135e-45 1.78712e-45 1.79153e-45 1.79433e-45 1.7953e-45 1.79421e-45 1.79086e-45 1.78512e-45 1.7769e-45 1.76621e-45 1.75312e-45 1.73781e-45 1.72054e-45 1.70165e-45 1.68155e-45 1.66072e-45 1.63964e-45 1.61882e-45 1.59876e-45 1.5799e-45 1.56265e-45 1.54733e-45 1.53418e-45 1.52336e-45 1.51491e-45 1.5088e-45 1.50494e-45 1.50314e-45 1.5032e-45 1.50486e-45 1.50787e-45 1.51197e-45 1.51691e-45 1.5225e-45 1.52853e-45 1.53487e-45 1.5414e-45 1.54805e-45 1.55478e-45 1.56158e-45 1.56849e-45 1.57556e-45 1.58286e-45 1.59051e-45 1.59862e-45 1.60733e-45 1.61677e-45 1.62706e-45 1.63827e-45 1.65044e-45 1.66354e-45 1.67745e-45 1.69193e-45 1.70665e-45 1.72113e-45 1.7348e-45 1.74695e-45 1.75678e-45 1.76341e-45 1.76592e-45 1.76337e-45 1.75484e-45 1.7395e-45 1.7166e-45 1.68558e-45 1.64604e-45 1.59781e-45 1.54099e-45 1.47591e-45 1.40318e-45 1.32366e-45 1.23844e-45 1.1488e-45 1.05616e-45 9.62012e-46 8.67882e-46 7.75253e-46 6.85504e-46 5.99863e-46 5.19361e-46 4.44808e-46 3.76771e-46 3.15582e-46 2.61342e-46 2.1395e-46 1.73129e-46 1.38464e-46 1.0944e-46 8.54781e-47 6.59702e-47 5.03077e-47 3.79051e-47 2.8218e-47 2.07546e-47 1.50819e-47 1.08281e-47 7.6808e-48 5.38302e-48 3.72751e-48 2.55034e-48 1.72416e-48 1.15179e-48 7.60332e-49 4.96008e-49 3.19779e-49 2.03757e-49 1.28322e-49 7.98798e-50 4.91532e-50 2.99e-50 1.79815e-50 1.06916e-50 6.2857e-51 3.65417e-51 2.10077e-51 1.19441e-51 6.71662e-52 3.73591e-52 2.05551e-52 1.11878e-52 6.02356e-53 3.20694e-53 1.68555e-53 8.68672e-54 4.26677e-54 1.7398e-54 0 
0 7.11638e-71 2.30867e-70 6.74252e-70 1.93367e-69 5.49634e-69 1.55003e-68 4.33728e-68 1.20417e-67 3.31688e-67 9.0641e-67 2.45725e-66 6.60818e-66 1.76279e-65 4.66423e-65 1.22405e-64 3.18594e-64 8.2237e-64 2.10507e-63 5.34331e-63 1.34485e-62 3.3561e-62 8.30358e-62 2.03677e-61 4.95264e-61 1.19378e-60 2.8522e-60 6.7542e-60 1.58519e-59 3.687e-59 8.49811e-59 1.94089e-58 4.39215e-58 9.84749e-58 2.18733e-57 4.81299e-57 1.04905e-56 2.26479e-56 4.8426e-56 1.02545e-55 2.15035e-55 4.46505e-55 9.17979e-55 1.86852e-54 3.76517e-54 7.51037e-54 1.48284e-53 2.89766e-53 5.60386e-53 1.07245e-52 2.03087e-52 3.80509e-52 7.05329e-52 1.29338e-51 2.346e-51 4.20886e-51 7.46787e-51 1.31035e-50 2.27354e-50 3.90035e-50 6.61535e-50 1.10921e-49 1.83844e-49 3.0118e-49 4.87648e-49 7.80287e-49 1.23377e-48 1.9276e-48 2.97551e-48 4.53775e-48 6.83628e-48 1.01735e-47 1.49541e-47 2.17103e-47 3.11283e-47 4.40764e-47 6.16306e-47 8.50949e-47 1.16014e-46 1.5617e-46 2.07567e-46 2.7238e-46 3.52896e-46 4.51407e-46 5.70088e-46 7.10845e-46 8.7514e-46 1.06382e-45 1.27695e-45 1.51365e-45 1.77201e-45 2.04901e-45 2.34059e-45 2.64171e-45 2.94655e-45 3.24877e-45 3.54181e-45 3.81929e-45 4.07532e-45 4.30487e-45 4.50408e-45 4.67045e-45 4.80296e-45 4.90209e-45 4.96972e-45 5.00896e-45 5.02384e-45 5.01904e-45 4.99953e-45 4.97024e-45 4.93579e-45 4.90023e-45 4.86689e-45 4.83829e-45 4.81615e-45 4.80138e-45 4.79423e-45 4.79442e-45 4.80125e-45 4.81378e-45 4.83094e-45 4.85164e-45 4.87484e-45 4.89961e-45 4.92511e-45 4.95061e-45 4.97546e-45 4.99906e-45 5.0208e-45 5.04008e-45 5.05625e-45 5.06864e-45 5.07657e-45 5.07935e-45 5.07635e-45 5.06703e-45 5.05097e-45 5.02796e-45 4.99797e-45 4.96125e-45 4.91827e-45 4.86977e-45 4.81671e-45 4.76026e-45 4.70172e-45 4.64249e-45 4.58399e-45 4.52761e-45 4.47464e-45 4.42618e-45 4.38317e-45 4.34626e-45 4.31588e-45 4.29219e-45 4.27509e-45 4.26428e-45 4.25928e-45 4.25947e-45 4.26416e-45 4.27262e-45 4.28413e-45 4.298e-45 4.31364e-45 4.33053e-45 4.34827e-45 4.36654e-45 4.38514e-45 4.40396e-45 4.423e-45 4.44234e-45 4.46213e-45 4.48261e-45 4.50408e-45 4.5269e-45 4.55145e-45 4.57811e-45 4.60722e-45 4.63904e-45 4.67369e-45 4.71109e-45 4.75091e-45 4.79254e-45 4.83505e-45 4.87713e-45 4.91715e-45 4.95315e-45 4.98285e-45 5.00378e-45 5.0133e-45 5.00872e-45 4.98741e-45 4.94692e-45 4.8851e-45 4.80023e-45 4.69111e-45 4.55718e-45 4.39857e-45 4.21618e-45 4.01164e-45 3.78735e-45 3.54635e-45 3.29224e-45 3.02906e-45 2.7611e-45 2.49272e-45 2.2282e-45 1.97153e-45 1.72629e-45 1.49549e-45 1.2815e-45 1.08603e-45 9.1007e-46 7.53969e-46 6.17475e-46 4.99828e-46 3.99866e-46 3.16128e-46 2.46965e-46 1.90635e-46 1.45395e-46 1.09561e-46 8.15662e-47 5.99942e-47 4.35961e-47 3.12987e-47 2.21998e-47 1.5557e-47 1.07711e-47 7.36835e-48 4.98044e-48 3.32637e-48 2.19532e-48 1.43176e-48 9.22801e-49 5.87811e-49 3.70069e-49 2.30287e-49 1.41653e-49 8.61353e-50 5.17801e-50 3.07752e-50 1.80853e-50 1.05092e-50 6.03898e-51 3.43194e-51 1.92899e-51 1.07242e-51 5.89761e-52 3.20836e-52 1.72652e-52 9.18732e-53 4.82637e-53 2.48612e-53 1.22061e-53 4.97555e-54 0 
0 1.97186e-70 6.39893e-70 1.8695e-69 5.36355e-69 1.52516e-68 4.30286e-68 1.20451e-67 3.34551e-67 9.21916e-67 2.52043e-66 6.83586e-66 1.83917e-65 4.9084e-65 1.29935e-64 3.41156e-64 8.88385e-64 2.29428e-63 5.87577e-63 1.49222e-62 3.75771e-62 9.38239e-62 2.32262e-61 5.70024e-61 1.38685e-60 3.34475e-60 7.99591e-60 1.89459e-59 4.44918e-59 1.03546e-58 2.38806e-58 5.45744e-58 1.23577e-57 2.77242e-57 6.16204e-57 1.35676e-56 2.95916e-56 6.3927e-56 1.3678e-55 2.89834e-55 6.08184e-55 1.2637e-54 2.59985e-54 5.29552e-54 1.06781e-53 2.13143e-53 4.21117e-53 8.23486e-53 1.59366e-52 3.05201e-52 5.78348e-52 1.08436e-51 2.01138e-51 3.69082e-51 6.69915e-51 1.20267e-50 2.13534e-50 3.74924e-50 6.50936e-50 1.11742e-49 1.89642e-49 3.18173e-49 5.27668e-49 8.6495e-49 1.40126e-48 2.2434e-48 3.54912e-48 5.54786e-48 8.56814e-48 1.30729e-47 1.97037e-47 2.93348e-47 4.31369e-47 6.26492e-47 8.98579e-47 1.27276e-46 1.78017e-46 2.45855e-46 3.3526e-46 4.5139e-46 6.00034e-46 7.87487e-46 1.02034e-45 1.30522e-45 1.64836e-45 2.05523e-45 2.53e-45 3.07502e-45 3.69035e-45 4.37332e-45 5.11823e-45 5.91621e-45 6.7553e-45 7.62075e-45 8.49556e-45 9.36127e-45 1.01988e-44 1.09897e-44 1.17169e-44 1.2366e-44 1.2926e-44 1.33897e-44 1.37545e-44 1.4022e-44 1.41981e-44 1.4292e-44 1.43156e-44 1.42828e-44 1.42081e-44 1.4106e-44 1.39899e-44 1.38717e-44 1.37611e-44 1.36652e-44 1.35892e-44 1.35355e-44 1.35049e-44 1.34964e-44 1.3508e-44 1.35368e-44 1.35798e-44 1.36336e-44 1.36952e-44 1.37619e-44 1.38313e-44 1.3901e-44 1.39693e-44 1.40345e-44 1.40946e-44 1.41481e-44 1.41931e-44 1.42277e-44 1.42499e-44 1.42578e-44 1.42497e-44 1.42239e-44 1.41794e-44 1.41155e-44 1.40321e-44 1.39299e-44 1.38102e-44 1.36751e-44 1.35272e-44 1.33699e-44 1.32067e-44 1.30416e-44 1.28785e-44 1.27214e-44 1.25737e-44 1.24387e-44 1.23189e-44 1.22161e-44 1.21316e-44 1.20657e-44 1.20182e-44 1.19882e-44 1.19744e-44 1.1975e-44 1.19882e-44 1.20118e-44 1.20438e-44 1.20824e-44 1.21258e-44 1.21728e-44 1.2222e-44 1.22727e-44 1.23243e-44 1.23765e-44 1.24294e-44 1.2483e-44 1.2538e-44 1.2595e-44 1.26548e-44 1.27185e-44 1.27871e-44 1.28618e-44 1.29436e-44 1.30333e-44 1.31311e-44 1.32371e-44 1.33503e-44 1.34691e-44 1.3591e-44 1.37124e-44 1.38287e-44 1.39345e-44 1.40235e-44 1.40886e-44 1.41225e-44 1.41174e-44 1.40659e-44 1.39608e-44 1.3796e-44 1.35664e-44 1.32682e-44 1.28997e-44 1.24609e-44 1.19541e-44 1.13836e-44 1.07561e-44 1.00799e-44 9.36523e-45 8.62337e-45 7.8665e-45 7.1071e-45 6.35738e-45 5.62883e-45 4.93176e-45 4.27491e-45 3.66524e-45 3.10775e-45 2.60544e-45 2.15945e-45 1.76919e-45 1.4326e-45 1.14643e-45 9.06579e-46 7.08387e-46 5.46909e-46 4.17176e-46 3.14389e-46 2.34072e-46 1.72171e-46 1.25111e-46 8.98161e-47 6.37009e-47 4.46349e-47 3.08995e-47 2.11344e-47 1.42825e-47 9.537e-48 6.29265e-48 4.10288e-48 2.64363e-48 1.68343e-48 1.05949e-48 6.59068e-49 4.05253e-49 2.46327e-49 1.48019e-49 8.79372e-50 5.16547e-50 3.00026e-50 1.72327e-50 9.78866e-51 5.49925e-51 3.0558e-51 1.67965e-51 9.13282e-52 4.91214e-52 2.61253e-52 1.37173e-52 7.06245e-53 3.46592e-53 1.41235e-53 0 
0 5.42062e-70 1.75959e-69 5.14268e-69 1.476e-68 4.19877e-68 1.18507e-67 3.31878e-67 9.2218e-67 2.54234e-66 6.9536e-66 1.88679e-65 5.07871e-65 1.35605e-64 3.59144e-64 9.43428e-64 2.45795e-63 6.35094e-63 1.62735e-62 4.13499e-62 1.04183e-61 2.6027e-61 6.44656e-61 1.58302e-60 3.85363e-60 9.2994e-60 2.2244e-59 5.27376e-59 1.23921e-58 2.88579e-58 6.65957e-58 1.52287e-57 3.45054e-57 7.7462e-57 1.72281e-56 3.79579e-56 8.28428e-56 1.79086e-55 3.83437e-55 8.1305e-55 1.70726e-54 3.54986e-54 7.30828e-54 1.48963e-53 3.00586e-53 6.00414e-53 1.18711e-52 2.323e-52 4.49879e-52 8.62168e-52 1.63494e-51 3.06752e-51 5.69396e-51 1.04555e-50 1.89907e-50 3.41164e-50 6.06147e-50 1.06499e-49 1.85023e-49 3.17822e-49 5.39736e-49 9.0611e-49 1.50364e-48 2.46623e-48 3.99773e-48 6.40394e-48 1.01367e-47 1.58537e-47 2.4497e-47 3.73945e-47 5.63876e-47 8.39864e-47 1.23553e-46 1.79509e-46 2.57562e-46 3.64932e-46 5.10569e-46 7.0532e-46 9.62028e-46 1.29551e-45 1.7224e-45 2.26074e-45 2.92946e-45 3.74748e-45 4.73266e-45 5.90054e-45 7.26287e-45 8.82616e-45 1.05902e-44 1.2547e-44 1.46797e-44 1.69623e-44 1.93599e-44 2.18297e-44 2.43223e-44 2.67844e-44 2.9161e-44 3.13988e-44 3.34489e-44 3.52702e-44 3.68313e-44 3.81126e-44 3.91071e-44 3.98203e-44 4.02698e-44 4.04829e-44 4.04949e-44 4.03461e-44 4.00791e-44 3.97358e-44 3.93554e-44 3.8972e-44 3.86135e-44 3.83009e-44 3.80482e-44 3.78628e-44 3.77465e-44 3.76964e-44 3.77064e-44 3.77682e-44 3.78726e-44 3.801e-44 3.81716e-44 3.83492e-44 3.85356e-44 3.87247e-44 3.89109e-44 3.9089e-44 3.92541e-44 3.94014e-44 3.95255e-44 3.96212e-44 3.96829e-44 3.97053e-44 3.96834e-44 3.96128e-44 3.94904e-44 3.93142e-44 3.90841e-44 3.88019e-44 3.84713e-44 3.8098e-44 3.76893e-44 3.72543e-44 3.68031e-44 3.63465e-44 3.58956e-44 3.54611e-44 3.50529e-44 3.46798e-44 3.43487e-44 3.40648e-44 3.38314e-44 3.36496e-44 3.35186e-44 3.34361e-44 3.33983e-44 3.34003e-44 3.34369e-44 3.35022e-44 3.35907e-44 3.36971e-44 3.3817e-44 3.39462e-44 3.40817e-44 3.42213e-44 3.43632e-44 3.4507e-44 3.46524e-44 3.48002e-44 3.49517e-44 3.51089e-44 3.52742e-44 3.54505e-44 3.5641e-44 3.58487e-44 3.60768e-44 3.63273e-44 3.66017e-44 3.68996e-44 3.72191e-44 3.75557e-44 3.79026e-44 3.82501e-44 3.85858e-44 3.88944e-44 3.91585e-44 3.93586e-44 3.94737e-44 3.94823e-44 3.93631e-44 3.90959e-44 3.86626e-44 3.80482e-44 3.72417e-44 3.62373e-44 3.50342e-44 3.3638e-44 3.20603e-44 3.03189e-44 2.8437e-44 2.64427e-44 2.43678e-44 2.22465e-44 2.0114e-44 1.80052e-44 1.59527e-44 1.39861e-44 1.21306e-44 1.04065e-44 8.82816e-45 7.40477e-45 6.13989e-45 5.03222e-45 4.07622e-45 3.26295e-45 2.58096e-45 2.01716e-45 1.55762e-45 1.18829e-45 8.956e-46 6.66842e-46 4.90504e-46 3.56429e-46 2.55867e-46 1.81456e-46 1.27131e-46 8.79972e-47 6.01774e-47 4.06596e-47 2.7144e-47 1.79055e-47 1.16714e-47 7.51811e-48 4.78591e-48 3.01105e-48 1.87239e-48 1.15087e-48 6.99264e-49 4.20018e-49 2.49424e-49 1.46448e-49 8.50224e-50 4.88116e-50 2.77131e-50 1.55615e-50 8.64283e-51 4.74819e-51 2.58041e-51 1.38716e-51 7.37374e-52 3.86961e-52 1.99129e-52 9.76789e-53 3.97909e-53 0 