# vtk DataFile Version 3.0
Gray-Scott Simulation Output
ASCII
DATASET STRUCTURED_POINTS
DIMENSIONS 256 256 1
SPACING 1.0 1.0 1.0
ORIGIN 0 0 0
POINT_DATA 65536
SCALARS u double
LOOKUP_TABLE default
0 0 0 0 0 0 0 0 0 0 0 0 0 0 0 0 0 0 0 0 0 0 0 0 0 0 0 0 0 0 0 0 0 0 0 0 0 0 0 0 0 0 0 0 0 0 0 0 0 0 0 0 0 0 0 0 0 0 0 0 0 0 0 0 0 0 0 0 0 0 0 0 0 0 0 0 0 0 0 0 0 0 0 0 0 0 0 0 0 0 0 0 0 0 0 0 0 0 0 0 0 0 0 0 0 0 0 0 0 0 0 0 0 0 0 0 0 0 0 0 0 0 0 0 0 0 0 0 0 0 0 0 0 0 0 0 0 0 0 0 0 0 0 0 0 0 0 0 0 0 0 0 0 0 0 0 0 0 0 0 0 0 0 0 0 0 0 0 0 0 0 0 0 0 0 0 0 0 0 0 0 0 0 0 0 0 0 0 0 0 0 0 0 0 0 0 0 0 0 0 0 0 0 0 0 0 0 0 0 0 0 0 0 0 0 0 0 0 0 0 0 0 0 0 0 0 0 0 0 0 0 0 0 0 0 0 0 0 0 0 0 0 0 0 0 0 0 0 0 0 0 0 0 0 0 0 
0 1.00063e-84 4.23616e-84 1.68099e-83 6.58952e-83 2.55954e-82 9.85238e-82 3.75808e-81 1.42038e-80 5.319e-80 1.97336e-79 7.25275e-79 2.64051e-78 9.52198e-78 3.40086e-77 1.20292e-76 4.21347e-76 1.46137e-75 5.01839e-75 1.70614e-74 5.74217e-74 1.91298e-73 6.30785e-73 2.0585e-72 6.64782e-72 2.12436e-71 6.71672e-71 2.101e-70 6.50122e-70 1.98986e-69 6.0237e-69 1.80334e-68 5.33855e-68 1.56262e-67 4.52193e-67 1.29357e-66 3.65769e-66 1.02218e-65 2.82294e-65 7.70345e-65 2.07696e-64 5.53201e-64 1.45545e-63 3.78201e-63 9.70524e-63 2.45922e-62 6.15239e-62 1.51947e-61 3.70414e-61 8.91206e-61 2.11596e-60 4.95701e-60 1.14567e-59 2.61199e-59 5.8735e-59 1.3025e-58 2.84813e-58 6.14016e-58 1.30492e-57 2.73343e-57 5.64282e-57 1.14786e-56 2.30053e-56 4.54204e-56 8.83284e-56 1.69168e-55 3.19038e-55 5.92404e-55 1.08289e-54 1.94845e-54 3.45041e-54 6.01281e-54 1.03099e-53 1.7392e-53 2.88611e-53 4.71079e-53 7.56221e-53 1.1938e-52 1.85312e-52 2.82831e-52 4.24392e-52 6.2603e-52 9.07793e-52 1.29396e-51 1.81295e-51 2.49675e-51 3.37979e-51 4.49715e-51 5.88219e-51 7.56352e-51 9.56172e-51 1.18859e-50 1.45307e-50 1.7474e-50 2.06758e-50 2.40791e-50 2.76119e-50 3.11911e-50 3.47287e-50 3.81378e-50 4.13396e-50 4.427e-50 4.68844e-50 4.91612e-50 5.11025e-50 5.27328e-50 5.40951e-50 5.52456e-50 5.62466e-50 5.71602e-50 5.80418e-50 5.89355e-50 5.98705e-50 6.08603e-50 6.19038e-50 6.29877e-50 6.40902e-50 6.51859e-50 6.62493e-50 6.72592e-50 6.82007e-50 6.90668e-50 6.9858e-50 7.0581e-50 7.1247e-50 7.18683e-50 7.2456e-50 7.30174e-50 7.35544e-50 7.40621e-50 7.45287e-50 7.49362e-50 7.52619e-50 7.54797e-50 7.5563e-50 7.54868e-50 7.52299e-50 7.47771e-50 7.41209e-50 7.32625e-50 7.22124e-50 7.09904e-50 6.9625e-50 6.81517e-50 6.66121e-50 6.5051e-50 6.35146e-50 6.2048e-50 6.06929e-50 5.94848e-50 5.84522e-50 5.76142e-50 5.69803e-50 5.655e-50 5.63139e-50 5.62543e-50 5.63477e-50 5.6567e-50 5.68837e-50 5.72706e-50 5.77032e-50 5.81614e-50 5.863e-50 5.90985e-50 5.95604e-50 6.00123e-50 6.04524e-50 6.08797e-50 6.12934e-50 6.16924e-50 6.20764e-50 6.24462e-50 6.28048e-50 6.31586e-50 6.35176e-50 6.38954e-50 6.4308e-50 6.4772e-50 6.53021e-50 6.59079e-50 6.65908e-50 6.73418e-50 6.81391e-50 6.89478e-50 6.97201e-50 7.03976e-50 7.0914e-50 7.11993e-50 7.11842e-50 7.08045e-50 7.00058e-50 6.87472e-50 6.7004e-50 6.47702e-50 6.20588e-50 5.89022e-50 5.53502e-50 5.14685e-50 4.73352e-50 4.3037e-50 3.86649e-50 3.43101e-50 3.00591e-50 2.59901e-50 2.21694e-50 1.86493e-50 1.54666e-50 1.2642e-50 1.01814e-50 8.0772e-51 6.31076e-51 4.85493e-51 3.67698e-51 2.74122e-51 2.01133e-51 1.45235e-51 1.03198e-51 7.21529e-52 4.96369e-52 3.3598e-52 2.23756e-52 1.46619e-52 9.45306e-53 5.99696e-53 3.74358e-53 2.29965e-53 1.39022e-53 8.27143e-54 4.84384e-54 2.79219e-54 1.58449e-54 8.85236e-55 4.86969e-55 2.63791e-55 1.40729e-55 7.39469e-56 3.82752e-56 1.95176e-56 9.8062e-57 4.855e-57 2.3689e-57 1.13926e-57 5.40103e-58 2.52439e-58 1.16337e-58 5.28704e-59 2.36972e-59 1.04767e-59 4.56925e-60 1.96612e-60 8.34732e-61 3.49585e-61 1.44106e-61 5.76085e-62 2.00774e-62 0 
0 4.23724e-84 1.79395e-83 7.11932e-83 2.79105e-82 1.08421e-81 4.17384e-81 1.59222e-80 6.01852e-80 2.25403e-79 8.36346e-79 3.07421e-78 1.11936e-77 4.03707e-77 1.44206e-76 5.10143e-76 1.78713e-75 6.19925e-75 2.12916e-74 7.23978e-74 2.437e-73 8.12012e-73 2.67798e-72 8.74082e-72 2.82331e-71 9.02377e-71 2.85365e-70 8.92802e-70 2.76319e-69 8.45917e-69 2.56131e-68 7.66958e-68 2.27098e-67 6.64879e-67 1.92449e-66 5.50663e-66 1.55743e-65 4.35349e-65 1.20261e-64 3.28263e-64 8.85283e-64 2.3586e-63 6.20712e-63 1.61339e-62 4.1414e-62 1.0497e-61 2.62689e-61 6.48966e-61 1.58253e-60 3.80871e-60 9.04574e-60 2.1198e-59 4.90091e-59 1.11771e-58 2.5142e-58 5.57732e-58 1.21998e-57 2.63099e-57 5.59332e-57 1.17204e-56 2.42036e-56 4.92517e-56 9.87432e-56 1.9502e-55 3.79381e-55 7.2684e-55 1.37123e-54 2.54699e-54 4.65733e-54 8.38263e-54 1.48491e-53 2.58845e-53 4.43964e-53 7.49153e-53 1.24353e-52 2.03029e-52 3.26006e-52 5.14776e-52 7.99269e-52 1.22015e-51 1.83123e-51 2.70181e-51 3.91852e-51 5.58632e-51 7.82801e-51 1.07818e-50 1.45965e-50 1.94236e-50 2.54072e-50 3.26706e-50 4.13023e-50 5.13411e-50 6.2763e-50 7.54716e-50 8.92934e-50 1.0398e-49 1.1922e-49 1.34654e-49 1.499e-49 1.64583e-49 1.78362e-49 1.9096e-49 2.02187e-49 2.11949e-49 2.20257e-49 2.27219e-49 2.33022e-49 2.37909e-49 2.4215e-49 2.46016e-49 2.49746e-49 2.5353e-49 2.57496e-49 2.61701e-49 2.66141e-49 2.70759e-49 2.75461e-49 2.80136e-49 2.84677e-49 2.88989e-49 2.9301e-49 2.9671e-49 3.00088e-49 3.03176e-49 3.0602e-49 3.08674e-49 3.11184e-49 3.13584e-49 3.1588e-49 3.18052e-49 3.20049e-49 3.21795e-49 3.23191e-49 3.24127e-49 3.24488e-49 3.24167e-49 3.23072e-49 3.2114e-49 3.18337e-49 3.14668e-49 3.10178e-49 3.04952e-49 2.99111e-49 2.92809e-49 2.86223e-49 2.79544e-49 2.72971e-49 2.66697e-49 2.609e-49 2.55734e-49 2.51318e-49 2.47736e-49 2.45027e-49 2.43191e-49 2.42185e-49 2.41934e-49 2.42338e-49 2.43279e-49 2.44636e-49 2.46292e-49 2.48143e-49 2.50101e-49 2.52103e-49 2.54104e-49 2.56076e-49 2.58005e-49 2.59884e-49 2.61708e-49 2.63474e-49 2.65178e-49 2.66818e-49 2.68397e-49 2.69928e-49 2.71439e-49 2.72971e-49 2.74584e-49 2.76346e-49 2.78328e-49 2.80594e-49 2.83185e-49 2.86108e-49 2.89324e-49 2.92741e-49 2.96209e-49 2.99525e-49 3.02437e-49 3.04662e-49 3.059e-49 3.05853e-49 3.04246e-49 3.00844e-49 2.95471e-49 2.8802e-49 2.78463e-49 2.66855e-49 2.53331e-49 2.38105e-49 2.21456e-49 2.03719e-49 1.85265e-49 1.66485e-49 1.4777e-49 1.29492e-49 1.11989e-49 9.55478e-50 8.0394e-50 6.6687e-50 5.45184e-50 4.39145e-50 3.4844e-50 2.72273e-50 2.09486e-50 1.58673e-50 1.18299e-50 8.68048e-51 6.26818e-51 4.45391e-51 3.11399e-51 2.14216e-51 1.44989e-51 9.6552e-52 6.3261e-52 4.07819e-52 2.58684e-52 1.61458e-52 9.91664e-53 5.99389e-53 3.56553e-53 2.08759e-53 1.20312e-53 6.82578e-54 3.8126e-54 2.0968e-54 1.13555e-54 6.05646e-55 3.18156e-55 1.64634e-55 8.39286e-56 4.21563e-56 2.08655e-56 1.0178e-56 4.89344e-57 2.31921e-57 1.08366e-57 4.99263e-58 2.26829e-58 1.01638e-58 4.49219e-59 1.95864e-59 8.42549e-60 3.5761e-60 1.49725e-60 6.17024e-61 2.46602e-61 8.59273e-62 0 
0 1.68189e-83 7.12136e-83 2.82639e-82 1.10817e-81 4.30526e-81 1.65756e-80 6.32393e-80 2.3907e-79 8.95469e-79 3.32302e-78 1.22163e-77 4.44875e-77 1.60471e-76 5.73296e-76 2.0284e-75 7.10703e-75 2.46572e-74 8.47008e-74 2.8806e-73 9.69824e-73 3.23207e-72 1.06613e-71 3.48051e-71 1.12445e-70 3.59469e-70 1.13702e-69 3.55813e-69 1.10148e-68 3.37286e-68 1.0215e-67 3.05954e-67 9.06169e-67 2.65371e-66 7.68321e-66 2.19904e-65 6.22127e-65 1.73953e-64 4.80671e-64 1.31243e-63 3.54053e-63 9.43577e-63 2.484e-62 6.45863e-62 1.65842e-61 4.20493e-61 1.05265e-60 2.60144e-60 6.34596e-60 1.52784e-59 3.62997e-59 8.50969e-59 1.96814e-58 4.49027e-58 1.01043e-57 2.24233e-57 4.90674e-57 1.05859e-56 2.25137e-56 4.71944e-56 9.74984e-56 1.98477e-55 3.98076e-55 7.86514e-55 1.53064e-54 2.93362e-54 5.53657e-54 1.02879e-53 1.8819e-53 3.38844e-53 6.0045e-53 1.04706e-52 1.79651e-52 3.03249e-52 5.03532e-52 8.22364e-52 1.32088e-51 2.08632e-51 3.24022e-51 4.94772e-51 7.42745e-51 1.09609e-50 1.59002e-50 2.26717e-50 3.17745e-50 4.37703e-50 5.92632e-50 7.88689e-50 1.03171e-49 1.32671e-49 1.67725e-49 2.08489e-49 2.54861e-49 3.06446e-49 3.62533e-49 4.22111e-49 4.83905e-49 5.46453e-49 6.08201e-49 6.67622e-49 7.23335e-49 7.74217e-49 8.19493e-49 8.58795e-49 8.92172e-49 9.20067e-49 9.43247e-49 9.62706e-49 9.79549e-49 9.94873e-49 1.00965e-48 1.02467e-48 1.04043e-48 1.05718e-48 1.0749e-48 1.09336e-48 1.11217e-48 1.1309e-48 1.14909e-48 1.16637e-48 1.18249e-48 1.19732e-48 1.21087e-48 1.22324e-48 1.23464e-48 1.24528e-48 1.25535e-48 1.26497e-48 1.27419e-48 1.28291e-48 1.29094e-48 1.29796e-48 1.30358e-48 1.30736e-48 1.30883e-48 1.30756e-48 1.30319e-48 1.29545e-48 1.28421e-48 1.26949e-48 1.25147e-48 1.23048e-48 1.20703e-48 1.18172e-48 1.15527e-48 1.12844e-48 1.10204e-48 1.07685e-48 1.05357e-48 1.03282e-48 1.0151e-48 1.00072e-48 9.89861e-49 9.82504e-49 9.78483e-49 9.77496e-49 9.79135e-49 9.8293e-49 9.88391e-49 9.95047e-49 1.00248e-48 1.01034e-48 1.01836e-48 1.02638e-48 1.03429e-48 1.04201e-48 1.04954e-48 1.05685e-48 1.06393e-48 1.07075e-48 1.07733e-48 1.08366e-48 1.08979e-48 1.09585e-48 1.10199e-48 1.10845e-48 1.11551e-48 1.12346e-48 1.13255e-48 1.14295e-48 1.1547e-48 1.16763e-48 1.18138e-48 1.19535e-48 1.20872e-48 1.22049e-48 1.2295e-48 1.23456e-48 1.23445e-48 1.22808e-48 1.21449e-48 1.19297e-48 1.16308e-48 1.1247e-48 1.07803e-48 1.02363e-48 9.62345e-49 8.95288e-49 8.23803e-49 7.49385e-49 6.73608e-49 5.98052e-49 5.24224e-49 4.53489e-49 3.87011e-49 3.25711e-49 2.70241e-49 2.20976e-49 1.7803e-49 1.41282e-49 1.10415e-49 8.49637e-50 6.43612e-50 4.79886e-50 3.52145e-50 2.5429e-50 1.80688e-50 1.26327e-50 8.68982e-51 5.88116e-51 3.91607e-51 2.56552e-51 1.65367e-51 1.04878e-51 6.54488e-52 4.01905e-52 2.42873e-52 1.44444e-52 8.45507e-53 4.87161e-53 2.76315e-53 1.54296e-53 8.48341e-54 4.59298e-54 2.44893e-54 1.28607e-54 6.65288e-55 3.39049e-55 1.70245e-55 8.42365e-56 4.10763e-56 1.97424e-56 9.35369e-57 4.3691e-57 2.01225e-57 9.13918e-58 4.09375e-58 1.80875e-58 7.88371e-59 3.39023e-59 1.43847e-59 6.02068e-60 2.48038e-60 9.91026e-61 3.45239e-61 0 
0 6.59501e-83 2.79266e-82 1.10849e-81 4.34662e-81 1.68887e-80 6.50302e-80 2.48134e-79 9.38166e-79 3.51449e-78 1.30438e-77 4.79592e-77 1.74677e-76 6.30172e-76 2.2517e-75 7.96816e-75 2.79232e-74 9.6894e-74 3.32904e-73 1.13239e-72 3.81319e-72 1.27105e-71 4.19355e-71 1.36932e-70 4.42483e-70 1.41487e-69 4.47634e-69 1.40113e-68 4.3385e-68 1.32882e-67 4.02549e-67 1.20601e-66 3.57289e-66 1.04661e-65 3.03107e-65 8.67783e-65 2.45575e-64 6.86862e-64 1.89854e-63 5.18542e-63 1.39932e-62 3.7305e-62 9.82396e-62 2.55519e-61 6.56337e-61 1.66474e-60 4.16894e-60 1.03066e-59 2.51512e-59 6.05762e-59 1.43976e-58 3.37653e-58 7.81235e-58 1.78307e-57 4.01398e-57 8.91132e-57 1.95079e-56 4.2104e-56 8.95818e-56 1.87863e-55 3.88264e-55 7.9071e-55 1.58654e-54 3.13596e-54 6.10541e-54 1.17064e-53 2.21021e-53 4.10858e-53 7.51856e-53 1.35427e-52 2.40076e-52 4.18799e-52 7.18823e-52 1.21379e-51 2.01614e-51 3.29384e-51 5.29224e-51 8.36158e-51 1.29899e-50 1.98406e-50 2.97919e-50 4.39751e-50 6.38048e-50 9.09951e-50 1.27551e-49 1.75731e-49 2.37961e-49 3.16714e-49 4.14333e-49 5.32824e-49 6.73614e-49 8.37315e-49 1.02351e-48 1.23057e-48 1.45565e-48 1.69464e-48 1.94242e-48 2.19307e-48 2.44036e-48 2.67813e-48 2.90084e-48 3.104e-48 3.2845e-48 3.44089e-48 3.57339e-48 3.68382e-48 3.77528e-48 3.85179e-48 3.91782e-48 3.97778e-48 4.0356e-48 4.09441e-48 4.15629e-48 4.2222e-48 4.29206e-48 4.36495e-48 4.43935e-48 4.51345e-48 4.58549e-48 4.65397e-48 4.71783e-48 4.77658e-48 4.83024e-48 4.87927e-48 4.92443e-48 4.96657e-48 5.00647e-48 5.04463e-48 5.08119e-48 5.11582e-48 5.14772e-48 5.17564e-48 5.19803e-48 5.21311e-48 5.21904e-48 5.2141e-48 5.19683e-48 5.16618e-48 5.12162e-48 5.06324e-48 4.99174e-48 4.90848e-48 4.81539e-48 4.71491e-48 4.60989e-48 4.50339e-48 4.39858e-48 4.29854e-48 4.20614e-48 4.1238e-48 4.05347e-48 3.99645e-48 3.9534e-48 3.92427e-48 3.90839e-48 3.90455e-48 3.91113e-48 3.92626e-48 3.94798e-48 3.97442e-48 4.00391e-48 4.03508e-48 4.06691e-48 4.09868e-48 4.12997e-48 4.16057e-48 4.19037e-48 4.21931e-48 4.24734e-48 4.27439e-48 4.30043e-48 4.3255e-48 4.3498e-48 4.37378e-48 4.39809e-48 4.42368e-48 4.45166e-48 4.48316e-48 4.51922e-48 4.56051e-48 4.60717e-48 4.65859e-48 4.71331e-48 4.76895e-48 4.82227e-48 4.86925e-48 4.90536e-48 4.92579e-48 4.92575e-48 4.90082e-48 4.8472e-48 4.76202e-48 4.64351e-48 4.49116e-48 4.30578e-48 4.08948e-48 3.84562e-48 3.57863e-48 3.29382e-48 2.99714e-48 2.69487e-48 2.3933e-48 2.09846e-48 1.81582e-48 1.55006e-48 1.30488e-48 1.08291e-48 8.85691e-49 7.13704e-49 5.66487e-49 4.42791e-49 3.40768e-49 2.58163e-49 1.92505e-49 1.41269e-49 1.02016e-49 7.24882e-50 5.06783e-50 3.48589e-50 2.35903e-50 1.57065e-50 1.02885e-50 6.63076e-51 4.20463e-51 2.62341e-51 1.61065e-51 9.73108e-52 5.78601e-52 3.38603e-52 1.95044e-52 1.10597e-52 6.17408e-53 3.39358e-53 1.83675e-53 9.7903e-54 5.13979e-54 2.65796e-54 1.35412e-54 6.79708e-55 3.36201e-55 1.63885e-55 7.87406e-56 3.72932e-56 1.74135e-56 8.01725e-57 3.63998e-57 1.6299e-57 7.1989e-58 3.13667e-58 1.3484e-58 5.71929e-59 2.39298e-59 9.85527e-60 3.93643e-60 1.37098e-60 0 
0 2.56244e-82 1.08516e-81 4.3078e-81 1.68937e-80 6.56476e-80 2.52809e-79 9.64759e-79 3.64812e-78 1.36682e-77 5.07358e-77 1.86572e-76 6.79636e-76 2.45228e-75 8.76382e-75 3.1018e-74 1.08717e-73 3.77318e-73 1.29662e-72 4.41135e-72 1.48577e-71 4.95355e-71 1.63466e-70 5.33883e-70 1.72558e-69 5.51891e-69 1.74648e-68 5.46796e-68 1.69354e-67 5.18843e-67 1.57218e-66 4.71142e-66 1.39618e-65 4.091e-65 1.18514e-64 3.39401e-64 9.60772e-64 2.68807e-63 7.43239e-63 2.03065e-62 5.48166e-62 1.46188e-61 3.85106e-61 1.00201e-60 2.57472e-60 6.53292e-60 1.63663e-59 4.04764e-59 9.88126e-59 2.38081e-58 5.66091e-58 1.32812e-57 3.07415e-57 7.01923e-57 1.58079e-56 3.51093e-56 7.68906e-56 1.66023e-55 3.53386e-55 7.41405e-55 1.53295e-54 3.12322e-54 6.26936e-54 1.23973e-53 2.41466e-53 4.63177e-53 8.74864e-53 1.62696e-52 2.97851e-52 5.36718e-52 9.51833e-52 1.66107e-51 2.85212e-51 4.81782e-51 8.00539e-51 1.30832e-50 2.10278e-50 3.32338e-50 5.16449e-50 7.89038e-50 1.1851e-49 1.74972e-49 2.53929e-49 3.62211e-49 5.07814e-49 6.99733e-49 9.47641e-49 1.26138e-48 1.65029e-48 2.12232e-48 2.68314e-48 3.33513e-48 4.07655e-48 4.90091e-48 5.79667e-48 6.74744e-48 7.73266e-48 8.72877e-48 9.71079e-48 1.06542e-47 1.1537e-47 1.23411e-47 1.30545e-47 1.36713e-47 1.41927e-47 1.46258e-47 1.49833e-47 1.52813e-47 1.55375e-47 1.57698e-47 1.59937e-47 1.62219e-47 1.64624e-47 1.67194e-47 1.69923e-47 1.72775e-47 1.75691e-47 1.78598e-47 1.81426e-47 1.84114e-47 1.86622e-47 1.8893e-47 1.91037e-47 1.92962e-47 1.94736e-47 1.96391e-47 1.97958e-47 1.99458e-47 2.00896e-47 2.02259e-47 2.03516e-47 2.04617e-47 2.05501e-47 2.06097e-47 2.06334e-47 2.06144e-47 2.05468e-47 2.04265e-47 2.02514e-47 2.00219e-47 1.97407e-47 1.94131e-47 1.90467e-47 1.86513e-47 1.82379e-47 1.78188e-47 1.74062e-47 1.70125e-47 1.66489e-47 1.63249e-47 1.60482e-47 1.58241e-47 1.56549e-47 1.55405e-47 1.54784e-47 1.54636e-47 1.54898e-47 1.55496e-47 1.56353e-47 1.57394e-47 1.58554e-47 1.5978e-47 1.6103e-47 1.62278e-47 1.63507e-47 1.64708e-47 1.65877e-47 1.67013e-47 1.68113e-47 1.69176e-47 1.70198e-47 1.71183e-47 1.72137e-47 1.73078e-47 1.74033e-47 1.75037e-47 1.76136e-47 1.77374e-47 1.78791e-47 1.80416e-47 1.82254e-47 1.84281e-47 1.8644e-47 1.88637e-47 1.90746e-47 1.92607e-47 1.94042e-47 1.94861e-47 1.94876e-47 1.9391e-47 1.91814e-47 1.88473e-47 1.83816e-47 1.77822e-47 1.70522e-47 1.61997e-47 1.52377e-47 1.41839e-47 1.30589e-47 1.18863e-47 1.06908e-47 9.49731e-48 8.32982e-48 7.21001e-48 6.15649e-48 5.18407e-48 4.3033e-48 3.5204e-48 2.83739e-48 2.25253e-48 1.76096e-48 1.3554e-48 1.02695e-48 7.65825e-49 5.62027e-49 4.05871e-49 2.88394e-49 2.01617e-49 1.38674e-49 9.38384e-50 6.24712e-50 4.09164e-50 2.63659e-50 1.6716e-50 1.04277e-50 6.40076e-51 3.86628e-51 2.29829e-51 1.34463e-51 7.7433e-52 4.3895e-52 2.4497e-52 1.34606e-52 7.28313e-53 3.8808e-53 2.03669e-53 1.05288e-53 5.36213e-54 2.69061e-54 1.33037e-54 6.48274e-55 3.11359e-55 1.47413e-55 6.88073e-56 3.16675e-56 1.43724e-56 6.43331e-57 2.84043e-57 1.23717e-57 5.31647e-58 2.25421e-58 9.42843e-59 3.88168e-59 1.54994e-59 5.39679e-60 0 
0 9.8665e-82 4.17876e-81 1.65904e-80 6.50692e-80 2.52885e-79 9.73983e-79 3.71737e-78 1.40587e-77 5.26805e-77 1.95577e-76 7.19311e-76 2.62069e-75 9.45758e-75 3.38047e-74 1.19667e-73 4.19505e-73 1.45623e-72 5.00515e-72 1.7032e-71 5.73767e-71 1.91334e-70 6.31536e-70 2.06307e-69 6.66967e-69 2.13367e-68 6.75375e-68 2.11503e-67 6.55239e-67 2.00796e-66 6.08612e-66 1.82437e-65 5.40789e-65 1.58505e-64 4.59318e-64 1.31581e-63 3.72595e-63 1.04279e-62 2.88423e-62 7.88284e-62 2.12868e-61 5.67886e-61 1.49653e-60 3.89525e-60 1.00128e-59 2.54155e-59 6.36952e-59 1.5759e-58 3.84868e-58 9.27684e-58 2.20667e-57 5.17928e-57 1.19933e-56 2.7396e-56 6.17246e-56 1.37149e-55 3.00492e-55 6.4911e-55 1.38226e-54 2.90127e-54 6.00139e-54 1.22326e-53 2.45659e-53 4.85993e-53 9.46999e-53 1.81732e-52 3.43411e-52 6.38909e-52 1.17016e-51 2.10948e-51 3.74255e-51 6.53385e-51 1.12233e-50 1.89658e-50 3.15257e-50 5.15407e-50 8.28669e-50 1.31011e-49 2.03654e-49 3.11236e-49 4.67591e-49 6.9054e-49 1.00238e-48 1.43012e-48 2.00536e-48 2.76368e-48 3.7433e-48 4.98312e-48 6.51996e-48 8.38522e-48 1.06011e-47 1.31769e-47 1.61053e-47 1.93605e-47 2.28964e-47 2.6648e-47 3.05335e-47 3.44594e-47 3.8327e-47 4.20392e-47 4.55087e-47 4.86651e-47 5.14603e-47 5.38721e-47 5.59051e-47 5.75888e-47 5.89731e-47 6.01222e-47 6.11069e-47 6.19975e-47 6.28562e-47 6.37324e-47 6.4659e-47 6.56511e-47 6.67077e-47 6.78142e-47 6.89467e-47 7.0077e-47 7.11773e-47 7.2224e-47 7.32005e-47 7.40988e-47 7.49192e-47 7.56687e-47 7.63591e-47 7.70036e-47 7.76141e-47 7.81987e-47 7.87595e-47 7.92913e-47 7.9782e-47 8.02125e-47 8.05585e-47 8.07927e-47 8.08867e-47 8.08138e-47 8.05515e-47 8.00835e-47 7.94016e-47 7.85068e-47 7.74101e-47 7.61322e-47 7.4703e-47 7.316e-47 7.15468e-47 6.99109e-47 6.83009e-47 6.67646e-47 6.53456e-47 6.40818e-47 6.30028e-47 6.21289e-47 6.14697e-47 6.10248e-47 6.07836e-47 6.07273e-47 6.08308e-47 6.10651e-47 6.14001e-47 6.18067e-47 6.22594e-47 6.27371e-47 6.32242e-47 6.371e-47 6.41881e-47 6.46555e-47 6.51105e-47 6.55526e-47 6.59808e-47 6.63943e-47 6.67924e-47 6.71757e-47 6.75472e-47 6.79135e-47 6.8285e-47 6.8676e-47 6.91037e-47 6.95859e-47 7.01387e-47 7.07727e-47 7.14903e-47 7.22827e-47 7.31274e-47 7.39881e-47 7.48149e-47 7.55463e-47 7.61122e-47 7.64383e-47 7.64506e-47 7.60802e-47 7.52683e-47 7.39697e-47 7.2156e-47 6.98185e-47 6.69683e-47 6.36369e-47 5.98752e-47 5.57506e-47 5.13447e-47 4.67489e-47 4.20604e-47 3.7377e-47 3.27926e-47 2.83928e-47 2.42512e-47 2.04264e-47 1.69604e-47 1.38781e-47 1.11879e-47 8.88349e-48 6.94597e-48 5.34699e-48 4.05171e-48 3.02172e-48 2.21771e-48 1.60157e-48 1.138e-48 7.95552e-49 5.47155e-49 3.70218e-49 2.46438e-49 1.61386e-49 1.03978e-49 6.59106e-50 4.11076e-50 2.52273e-50 1.52345e-50 9.05376e-51 5.29553e-51 3.04865e-51 1.72769e-51 9.63892e-52 5.29469e-52 2.86385e-52 1.52548e-52 8.00309e-53 4.13579e-53 2.10552e-53 1.05612e-53 5.22007e-54 2.54273e-54 1.22078e-54 5.77762e-55 2.69578e-55 1.24023e-55 5.62669e-56 2.51764e-56 1.11117e-56 4.83798e-57 2.07825e-57 8.80863e-58 3.68295e-58 1.51573e-58 6.05027e-59 2.10612e-59 0 
0 3.76462e-81 1.59459e-80 6.33151e-80 2.48359e-79 9.65345e-79 3.7185e-78 1.41942e-77 5.36888e-77 2.01212e-76 7.47115e-76 2.74825e-75 1.00144e-74 3.61464e-74 1.29223e-73 4.57526e-73 1.60421e-72 5.56977e-72 1.91475e-71 6.51703e-71 2.1959e-70 7.3243e-70 2.41808e-69 7.90113e-69 2.55496e-68 8.1755e-68 2.58846e-67 8.10825e-67 2.51262e-66 7.70199e-66 2.33513e-65 7.00179e-65 2.07613e-64 6.08698e-64 1.76444e-63 5.05622e-63 1.43223e-62 4.00976e-62 1.10943e-61 3.03322e-61 8.1938e-61 2.18673e-60 5.76476e-60 1.50105e-59 3.85996e-59 9.80154e-59 2.4574e-58 6.0824e-58 1.48606e-57 3.58348e-57 8.5276e-57 2.00237e-56 4.63876e-56 1.06009e-55 2.38949e-55 5.3117e-55 1.16431e-54 2.51624e-54 5.36071e-54 1.12569e-53 2.3296e-53 4.75063e-53 9.54474e-53 1.88912e-52 3.68281e-52 7.07063e-52 1.33671e-51 2.48804e-51 4.55885e-51 8.22194e-51 1.45933e-50 2.54881e-50 4.37994e-50 7.40442e-50 1.23127e-49 2.01373e-49 3.23882e-49 5.12228e-49 7.96502e-49 1.21763e-48 1.82986e-48 2.70305e-48 3.92464e-48 5.60058e-48 7.85483e-48 1.08268e-47 1.46665e-47 1.95262e-47 2.55501e-47 3.2861e-47 4.15453e-47 5.16384e-47 6.31112e-47 7.58602e-47 8.9704e-47 1.04385e-46 1.19583e-46 1.34929e-46 1.50034e-46 1.64519e-46 1.78041e-46 1.90324e-46 2.01182e-46 2.1053e-46 2.18387e-46 2.24871e-46 2.30181e-46 2.34569e-46 2.38315e-46 2.41695e-46 2.44954e-46 2.48286e-46 2.51819e-46 2.55615e-46 2.59668e-46 2.63921e-46 2.68281e-46 2.72638e-46 2.76882e-46 2.80921e-46 2.84689e-46 2.88157e-46 2.91323e-46 2.94216e-46 2.9688e-46 2.99368e-46 3.01725e-46 3.03984e-46 3.06152e-46 3.08209e-46 3.10109e-46 3.11778e-46 3.13121e-46 3.14033e-46 3.14402e-46 3.14127e-46 3.13118e-46 3.11313e-46 3.08679e-46 3.05221e-46 3.00981e-46 2.96039e-46 2.9051e-46 2.84541e-46 2.78299e-46 2.71969e-46 2.6574e-46 2.59796e-46 2.54307e-46 2.49418e-46 2.45246e-46 2.41869e-46 2.39323e-46 2.37607e-46 2.36679e-46 2.36467e-46 2.36872e-46 2.37782e-46 2.39081e-46 2.40655e-46 2.42406e-46 2.44253e-46 2.46133e-46 2.48008e-46 2.49853e-46 2.51656e-46 2.53411e-46 2.55116e-46 2.56769e-46 2.58364e-46 2.59901e-46 2.6138e-46 2.62814e-46 2.64227e-46 2.65661e-46 2.67169e-46 2.6882e-46 2.70683e-46 2.72819e-46 2.75272e-46 2.78051e-46 2.81122e-46 2.84399e-46 2.87743e-46 2.90959e-46 2.93809e-46 2.96023e-46 2.97311e-46 2.97386e-46 2.95981e-46 2.92866e-46 2.87863e-46 2.80863e-46 2.71826e-46 2.60795e-46 2.4789e-46 2.33306e-46 2.17301e-46 2.00193e-46 1.82334e-46 1.64102e-46 1.45878e-46 1.28028e-46 1.10886e-46 9.47398e-47 7.98208e-47 6.62944e-47 5.42598e-47 4.37516e-47 3.47467e-47 2.71729e-47 2.09206e-47 1.58545e-47 1.1825e-47 8.6791e-48 6.26793e-48 4.45366e-48 3.11335e-48 2.14112e-48 1.4486e-48 9.64157e-49 6.31312e-49 4.06676e-49 2.57738e-49 1.60714e-49 9.86053e-50 5.95318e-50 3.53699e-50 2.06819e-50 1.19031e-50 6.74345e-51 3.761e-51 2.06524e-51 1.11668e-51 5.94607e-52 3.11835e-52 1.61089e-52 8.1979e-53 4.11048e-53 2.0309e-53 9.88879e-54 4.74584e-54 2.24519e-54 1.04718e-54 4.81577e-55 2.18397e-55 9.7683e-56 4.30959e-56 1.87565e-56 8.05414e-57 3.41244e-57 1.42623e-57 5.86754e-58 2.34131e-58 8.148e-59 0 
0 1.4233e-80 6.02933e-80 2.39431e-79 9.39306e-79 3.65147e-78 1.40674e-77 5.37055e-77 2.03168e-76 7.61536e-76 2.8281e-75 1.04048e-74 3.79209e-74 1.36897e-73 4.89495e-73 1.73343e-72 6.07906e-72 2.11106e-71 7.25883e-71 2.47114e-70 8.32832e-70 2.77849e-69 9.17521e-69 2.99875e-68 9.69934e-68 3.10445e-67 9.83165e-67 3.08055e-66 9.54883e-66 2.92785e-65 8.87942e-65 2.66326e-64 7.89936e-64 2.31674e-63 6.71773e-63 1.92568e-62 5.45655e-62 1.52818e-61 4.22969e-61 1.15683e-60 3.12617e-60 8.34613e-60 2.20109e-59 5.73352e-59 1.47497e-58 3.74689e-58 9.39792e-58 2.32709e-57 5.68799e-57 1.37219e-56 3.26684e-56 7.67428e-56 1.77865e-55 4.06656e-55 9.17043e-55 2.03948e-54 4.47258e-54 9.67043e-54 2.06121e-53 4.33037e-53 8.96592e-53 1.82924e-52 3.67699e-52 7.28108e-52 1.42011e-51 2.72776e-51 5.15928e-51 9.60751e-51 1.7612e-50 3.17779e-50 5.64285e-50 9.85988e-50 1.69507e-49 2.86676e-49 4.769e-49 7.80268e-49 1.25543e-48 1.9862e-48 3.08954e-48 4.72456e-48 7.10215e-48 1.04941e-47 1.52405e-47 2.17535e-47 3.05153e-47 4.20684e-47 5.69956e-47 7.58891e-47 9.93087e-47 1.2773e-46 1.61487e-46 2.00714e-46 2.45293e-46 2.94817e-46 3.48573e-46 4.05554e-46 4.64506e-46 5.23991e-46 5.82495e-46 6.38538e-46 6.9079e-46 7.38183e-46 7.79996e-46 8.15905e-46 8.45997e-46 8.70738e-46 8.90907e-46 9.07496e-46 9.21598e-46 9.3429e-46 9.46529e-46 9.5907e-46 9.72414e-46 9.86796e-46 1.0022e-45 1.0184e-45 1.03503e-45 1.05168e-45 1.0679e-45 1.08335e-45 1.09777e-45 1.11103e-45 1.12315e-45 1.13421e-45 1.1444e-45 1.15392e-45 1.16295e-45 1.1716e-45 1.17991e-45 1.1878e-45 1.19509e-45 1.20151e-45 1.20668e-45 1.2102e-45 1.21164e-45 1.2106e-45 1.20676e-45 1.19986e-45 1.18978e-45 1.17653e-45 1.16028e-45 1.14133e-45 1.12012e-45 1.09723e-45 1.07329e-45 1.049e-45 1.02511e-45 1.00231e-45 9.81257e-46 9.62513e-46 9.46521e-46 9.33579e-46 9.23833e-46 9.1727e-46 9.13733e-46 9.1294e-46 9.14514e-46 9.18022e-46 9.23013e-46 9.29056e-46 9.3577e-46 9.42843e-46 9.50044e-46 9.57217e-46 9.64272e-46 9.71164e-46 9.77876e-46 9.84397e-46 9.90717e-46 9.96821e-46 1.0027e-45 1.00836e-45 1.01384e-45 1.01925e-45 1.02473e-45 1.0305e-45 1.03682e-45 1.04395e-45 1.05214e-45 1.06155e-45 1.07221e-45 1.08402e-45 1.09663e-45 1.1095e-45 1.12191e-45 1.13293e-45 1.14152e-45 1.14657e-45 1.14697e-45 1.1417e-45 1.12986e-45 1.11077e-45 1.08398e-45 1.04936e-45 1.00704e-45 9.57489e-46 9.01433e-46 8.3987e-46 7.74006e-46 7.05202e-46 6.34909e-46 5.64595e-46 4.95677e-46 4.29452e-46 3.67037e-46 3.09331e-46 2.56984e-46 2.10387e-46 1.69682e-46 1.34785e-46 1.05424e-46 8.11786e-47 6.15272e-47 4.58938e-47 3.36859e-47 2.4328e-47 1.7286e-47 1.20834e-47 8.30943e-48 5.62128e-48 3.74093e-48 2.44912e-48 1.57739e-48 9.99495e-49 6.23103e-49 3.82209e-49 2.30694e-49 1.37025e-49 8.00991e-50 4.60851e-50 2.61001e-50 1.45518e-50 7.98784e-51 4.31749e-51 2.29812e-51 1.20477e-51 6.22123e-52 3.16479e-52 1.58622e-52 7.83402e-53 3.81299e-53 1.82919e-53 8.65016e-54 4.03286e-54 1.85388e-54 8.40403e-55 3.75737e-55 1.65701e-55 7.2089e-56 3.0943e-56 1.3105e-56 5.4751e-57 2.25161e-57 8.98139e-58 3.12474e-58 0 
0 5.33158e-80 2.25879e-79 8.97103e-79 3.51987e-78 1.3685e-77 5.27295e-77 2.01337e-76 7.61775e-76 2.85583e-75 1.06074e-74 3.90321e-74 1.4228e-73 5.13734e-73 1.83728e-72 6.50756e-72 2.28263e-71 7.9285e-71 2.72678e-70 9.28491e-70 3.12995e-69 1.04446e-68 3.44988e-68 1.12781e-67 3.6488e-67 1.16817e-66 3.70056e-66 1.15982e-65 3.59615e-65 1.10297e-64 3.34605e-64 1.00391e-63 2.9786e-63 8.73854e-63 2.53472e-62 7.26844e-62 2.06028e-61 5.77216e-61 1.5982e-60 4.37275e-60 1.18212e-59 3.15722e-59 8.32971e-59 2.17065e-58 5.58637e-58 1.41971e-57 3.56243e-57 8.825e-57 2.15801e-56 5.20839e-56 1.24055e-55 2.91557e-55 6.76048e-55 1.54639e-54 3.4889e-54 7.76295e-54 1.70324e-53 3.68447e-53 7.85713e-53 1.65151e-52 3.42111e-52 6.98326e-52 1.40441e-51 2.78236e-51 5.42941e-51 1.0434e-50 1.97445e-50 3.67856e-50 6.74659e-50 1.21788e-49 2.16361e-49 3.78225e-49 6.50518e-49 1.10065e-48 1.83176e-48 2.9982e-48 4.82589e-48 7.63782e-48 1.18848e-47 1.81804e-47 2.7338e-47 4.0406e-47 5.86965e-47 8.37999e-47 1.17577e-46 1.62119e-46 2.19676e-46 2.92529e-46 3.82834e-46 4.9242e-46 6.22564e-46 7.7377e-46 9.45564e-46 1.13635e-45 1.34337e-45 1.56269e-45 1.78946e-45 2.01812e-45 2.24281e-45 2.45781e-45 2.658e-45 2.83928e-45 2.99888e-45 3.1356e-45 3.24979e-45 3.3433e-45 3.41917e-45 3.48124e-45 3.53376e-45 3.58091e-45 3.62637e-45 3.67308e-45 3.72296e-45 3.77693e-45 3.83491e-45 3.89605e-45 3.95895e-45 4.02196e-45 4.08343e-45 4.142e-45 4.19667e-45 4.24697e-45 4.29291e-45 4.33486e-45 4.37351e-45 4.40961e-45 4.44385e-45 4.47669e-45 4.50826e-45 4.53827e-45 4.56604e-45 4.59047e-45 4.6102e-45 4.62367e-45 4.62924e-45 4.62541e-45 4.61089e-45 4.58473e-45 4.54647e-45 4.49616e-45 4.43441e-45 4.36239e-45 4.28178e-45 4.19472e-45 4.10368e-45 4.01134e-45 3.92048e-45 3.83379e-45 3.75375e-45 3.6825e-45 3.62173e-45 3.57258e-45 3.53559e-45 3.51071e-45 3.49735e-45 3.49442e-45 3.50048e-45 3.51388e-45 3.5329e-45 3.55589e-45 3.58141e-45 3.60827e-45 3.6356e-45 3.6628e-45 3.68954e-45 3.71566e-45 3.7411e-45 3.76582e-45 3.78977e-45 3.81292e-45 3.83521e-45 3.85668e-45 3.87748e-45 3.89798e-45 3.91876e-45 3.94064e-45 3.96459e-45 3.99166e-45 4.02276e-45 4.05853e-45 4.09915e-45 4.14412e-45 4.19222e-45 4.2414e-45 4.28886e-45 4.33111e-45 4.36417e-45 4.38383e-45 4.38584e-45 4.36626e-45 4.32169e-45 4.24949e-45 4.14796e-45 4.01648e-45 3.85559e-45 3.66698e-45 3.45341e-45 3.21865e-45 2.96729e-45 2.70449e-45 2.4358e-45 2.16683e-45 1.90301e-45 1.64932e-45 1.41008e-45 1.18876e-45 9.87876e-46 8.08967e-46 6.52606e-46 5.18502e-46 4.05626e-46 3.12386e-46 2.36792e-46 1.76641e-46 1.2966e-46 9.36424e-47 6.65357e-47 4.65081e-47 3.198e-47 2.16321e-47 1.43941e-47 9.42205e-48 6.06726e-48 3.84365e-48 2.39564e-48 1.4691e-48 8.8648e-49 5.26386e-49 3.07608e-49 1.76925e-49 1.00166e-49 5.58268e-50 3.06336e-50 1.65515e-50 8.80664e-51 4.61498e-51 2.38215e-51 1.21133e-51 6.06877e-52 2.99601e-52 1.45761e-52 6.98963e-53 3.30396e-53 1.53972e-53 7.07501e-54 3.2059e-54 1.43273e-54 6.31575e-55 2.74655e-55 1.17842e-55 4.98883e-56 2.08343e-56 8.56464e-57 3.41507e-57 1.1878e-57 0 