# vtk DataFile Version 3.0
Gray-Scott Simulation Output
ASCII
DATASET STRUCTURED_POINTS
DIMENSIONS 256 256 1
SPACING 1.0 1.0 1.0
ORIGIN 0 0 0
POINT_DATA 65536
SCALARS u double
LOOKUP_TABLE default
0 0 0 0 0 0 0 0 0 0 0 0 0 0 0 0 0 0 0 0 0 0 0 0 0 0 0 0 0 0 0 0 0 0 0 0 0 0 0 0 0 0 0 0 0 0 0 0 0 0 0 0 0 0 0 0 0 0 0 0 0 0 0 0 0 0 0 0 0 0 0 0 0 0 0 0 0 0 0 0 0 0 0 0 0 0 0 0 0 0 0 0 0 0 0 0 0 0 0 0 0 0 0 0 0 0 0 0 0 0 0 0 0 0 0 0 0 0 0 0 0 0 0 0 0 0 0 0 0 0 0 0 0 0 0 0 0 0 0 0 0 0 0 0 0 0 0 0 0 0 0 0 0 0 0 0 0 0 0 0 0 0 0 0 0 0 0 0 0 0 0 0 0 0 0 0 0 0 0 0 0 0 0 0 0 0 0 0 0 0 0 0 0 0 0 0 0 0 0 0 0 0 0 0 0 0 0 0 0 0 0 0 0 0 0 0 0 0 0 0 0 0 0 0 0 0 0 0 0 0 0 0 0 0 0 0 0 0 0 0 0 0 0 0 0 0 0 0 0 0 0 0 0 0 0 0 
0 1.30746e-97 7.12613e-97 3.72144e-96 1.92273e-95 9.83832e-95 4.98539e-94 2.5016e-93 1.24291e-92 6.11398e-92 2.9774e-91 1.43528e-90 6.84831e-90 3.23399e-89 1.51133e-88 6.98882e-88 3.19765e-87 1.44742e-86 6.4812e-86 2.87055e-85 1.25741e-84 5.44689e-84 2.33308e-83 9.88036e-83 4.13646e-82 1.71178e-81 7.00132e-81 2.82991e-80 1.13025e-79 4.45993e-79 1.73853e-78 6.69394e-78 2.54547e-77 9.55837e-77 3.54381e-76 1.29709e-75 4.68615e-75 1.6709e-74 5.87909e-74 2.04094e-73 6.98943e-73 2.36092e-72 7.86465e-72 2.58325e-71 8.3651e-71 2.67007e-70 8.39934e-70 2.60355e-69 7.95073e-69 2.39162e-68 7.08503e-68 2.06669e-67 5.93488e-67 1.67752e-66 4.66614e-66 1.27702e-65 3.43793e-65 9.10268e-65 2.36987e-64 6.06557e-64 1.52587e-63 3.77196e-63 9.16069e-63 2.18526e-62 5.11913e-62 1.17736e-61 2.65792e-61 5.88839e-61 1.2799e-60 2.72882e-60 5.70556e-60 1.16962e-59 2.35025e-59 4.62816e-59 8.92955e-59 1.68765e-58 3.12371e-58 5.66114e-58 1.00436e-57 1.744e-57 2.9634e-57 4.92652e-57 8.01175e-57 1.27434e-56 1.98222e-56 3.01496e-56 4.48362e-56 6.51876e-56 9.26558e-56 1.2875e-55 1.74903e-55 2.32305e-55 3.01702e-55 3.83208e-55 4.76138e-55 5.78909e-55 6.8904e-55 8.03271e-55 9.17788e-55 1.02857e-54 1.13178e-54 1.22418e-54 1.30348e-54 1.36863e-54 1.41987e-54 1.45871e-54 1.48771e-54 1.51012e-54 1.52948e-54 1.54913e-54 1.57187e-54 1.5996e-54 1.6332e-54 1.67247e-54 1.71631e-54 1.7629e-54 1.81011e-54 1.85575e-54 1.89797e-54 1.93546e-54 1.96761e-54 1.99449e-54 2.0168e-54 2.03567e-54 2.05247e-54 2.06854e-54 2.08499e-54 2.10258e-54 2.12157e-54 2.14174e-54 2.1624e-54 2.18249e-54 2.20063e-54 2.21533e-54 2.22503e-54 2.22828e-54 2.22385e-54 2.21082e-54 2.18869e-54 2.1574e-54 2.11736e-54 2.06946e-54 2.015e-54 1.95564e-54 1.89326e-54 1.82993e-54 1.76774e-54 1.70876e-54 1.65488e-54 1.60775e-54 1.56869e-54 1.53857e-54 1.51781e-54 1.50626e-54 1.5033e-54 1.50782e-54 1.51838e-54 1.53335e-54 1.55109e-54 1.57009e-54 1.58918e-54 1.60755e-54 1.62483e-54 1.641e-54 1.65631e-54 1.67114e-54 1.68584e-54 1.70063e-54 1.71548e-54 1.73015e-54 1.74421e-54 1.75716e-54 1.76859e-54 1.77834e-54 1.78664e-54 1.79413e-54 1.80191e-54 1.81138e-54 1.82406e-54 1.84134e-54 1.86422e-54 1.89308e-54 1.92747e-54 1.96605e-54 2.00663e-54 2.04629e-54 2.08161e-54 2.10894e-54 2.12473e-54 2.1258e-54 2.10956e-54 2.07424e-54 2.01896e-54 1.94377e-54 1.84967e-54 1.7385e-54 1.61288e-54 1.476e-54 1.33152e-54 1.18331e-54 1.03529e-54 8.91166e-55 7.54266e-55 6.27344e-55 5.12465e-55 4.10941e-55 3.23337e-55 2.49524e-55 1.88797e-55 1.40013e-55 1.01747e-55 7.24368e-56 5.05136e-56 3.44995e-56 2.30744e-56 1.51126e-56 9.69223e-57 6.08679e-57 3.7432e-57 2.2543e-57 1.32962e-57 7.68114e-58 4.34667e-58 2.40976e-58 1.30899e-58 6.96795e-59 3.63541e-59 1.85931e-59 9.32341e-60 4.58461e-60 2.21113e-60 1.04615e-60 4.85652e-61 2.21255e-61 9.89431e-62 4.34398e-62 1.87278e-62 7.92999e-63 3.29861e-63 1.34819e-63 5.41524e-64 2.13806e-64 8.29931e-65 3.16789e-65 1.1893e-65 4.39223e-66 1.59602e-66 5.70728e-67 2.00883e-67 6.96075e-68 2.3749e-68 7.9792e-69 2.63855e-69 8.52742e-70 2.4933e-70 0 
0 7.12779e-97 3.8847e-96 2.02857e-95 1.04803e-94 5.36234e-94 2.71714e-93 1.36336e-92 6.77349e-92 3.33181e-91 1.62247e-90 7.82099e-90 3.73161e-89 1.76213e-88 8.23471e-88 3.80788e-87 1.74222e-86 7.88608e-86 3.53115e-85 1.56394e-84 6.85066e-84 2.96758e-83 1.27111e-82 5.38307e-82 2.25367e-81 9.32644e-81 3.81466e-80 1.5419e-79 6.15842e-79 2.43017e-78 9.47342e-78 3.64773e-77 1.38716e-76 5.20911e-76 1.9314e-75 7.06959e-75 2.55428e-74 9.10817e-74 3.20494e-73 1.11268e-72 3.81082e-72 1.28734e-71 4.28874e-71 1.40883e-70 4.56252e-70 1.45646e-69 4.58215e-69 1.42049e-68 4.33841e-68 1.30517e-67 3.86698e-67 1.12814e-66 3.2401e-66 9.15954e-66 2.54816e-65 6.97476e-65 1.878e-64 4.9732e-64 1.29497e-63 3.31496e-63 8.34059e-63 2.06216e-62 5.00908e-62 1.19511e-61 2.80014e-61 6.44125e-61 1.4544e-60 3.22269e-60 7.0061e-60 1.49402e-59 3.12436e-59 6.406e-59 1.28747e-58 2.53577e-58 4.8934e-58 9.24997e-58 1.7124e-57 3.10393e-57 5.50772e-57 9.5653e-57 1.62558e-56 2.70286e-56 4.39615e-56 6.9934e-56 1.08796e-55 1.65497e-55 2.46142e-55 3.57903e-55 5.08758e-55 7.06998e-55 9.60504e-55 1.2758e-54 1.65701e-54 2.10473e-54 2.6152e-54 3.17971e-54 3.78464e-54 4.41205e-54 5.04098e-54 5.64934e-54 6.21604e-54 6.72329e-54 7.15856e-54 7.516e-54 7.79697e-54 8.00978e-54 8.16848e-54 8.29092e-54 8.39646e-54 8.50352e-54 8.62739e-54 8.77858e-54 8.96188e-54 9.17627e-54 9.41565e-54 9.67018e-54 9.92806e-54 1.01774e-53 1.04082e-53 1.06131e-53 1.07887e-53 1.09355e-53 1.10574e-53 1.11605e-53 1.12522e-53 1.13399e-53 1.14298e-53 1.15258e-53 1.16295e-53 1.17397e-53 1.18526e-53 1.19623e-53 1.20615e-53 1.21418e-53 1.21949e-53 1.22127e-53 1.21886e-53 1.21176e-53 1.19968e-53 1.18259e-53 1.16072e-53 1.13456e-53 1.1048e-53 1.07236e-53 1.03828e-53 1.00367e-53 9.69686e-54 9.3745e-54 9.08002e-54 8.82244e-54 8.60896e-54 8.44441e-54 8.33099e-54 8.26801e-54 8.25196e-54 8.27682e-54 8.33471e-54 8.41669e-54 8.51373e-54 8.61769e-54 8.72206e-54 8.82249e-54 8.91688e-54 9.00517e-54 9.08875e-54 9.16968e-54 9.24993e-54 9.33065e-54 9.41177e-54 9.49191e-54 9.56872e-54 9.63947e-54 9.70193e-54 9.75522e-54 9.80051e-54 9.8414e-54 9.88383e-54 9.93545e-54 1.00046e-53 1.00989e-53 1.02238e-53 1.03813e-53 1.05691e-53 1.07799e-53 1.10016e-53 1.12183e-53 1.14113e-53 1.15607e-53 1.1647e-53 1.16528e-53 1.1564e-53 1.13709e-53 1.10684e-53 1.06571e-53 1.01421e-53 9.53367e-54 8.84589e-54 8.09631e-54 7.30485e-54 6.49276e-54 5.68146e-54 4.89131e-54 4.14055e-54 3.44432e-54 2.81399e-54 2.25682e-54 1.77592e-54 1.37066e-54 1.03718e-54 7.69243e-55 5.59044e-55 3.98022e-55 2.77571e-55 1.89578e-55 1.26798e-55 8.30455e-56 5.32591e-56 3.3446e-56 2.05674e-56 1.23858e-56 7.30478e-57 4.2196e-57 2.38761e-57 1.32354e-57 7.1887e-58 3.82622e-58 1.99602e-58 1.02072e-58 5.11766e-59 2.51616e-59 1.21336e-59 5.73989e-60 2.66422e-60 1.21359e-60 5.42622e-61 2.38195e-61 1.02675e-61 4.34694e-62 1.8079e-62 7.38801e-63 2.96708e-63 1.17129e-63 4.54594e-64 1.73496e-64 6.51247e-65 2.4048e-65 8.73719e-66 3.12396e-66 1.09941e-66 3.80907e-67 1.29944e-67 4.36533e-68 1.44336e-68 4.66421e-69 1.36363e-69 0 
0 3.72324e-96 2.02908e-95 1.05951e-94 5.47353e-94 2.80043e-93 1.41893e-92 7.11934e-92 3.5369e-91 1.7397e-90 8.47139e-90 4.08343e-89 1.94825e-88 9.19976e-88 4.29909e-87 1.98794e-86 9.09526e-86 4.11688e-85 1.8434e-84 8.16436e-84 3.57629e-83 1.54919e-82 6.63573e-82 2.81021e-81 1.17654e-80 4.869e-80 1.99154e-79 8.05013e-79 3.21535e-78 1.26886e-77 4.94652e-77 1.90474e-76 7.24372e-76 2.72033e-75 1.00869e-74 3.69239e-74 1.33417e-73 4.75781e-73 1.67429e-72 5.81325e-72 1.99115e-71 6.72701e-71 2.24131e-70 7.36334e-70 2.3849e-69 7.61405e-69 2.39573e-68 7.42783e-68 2.26888e-67 6.82666e-67 2.0229e-66 5.9024e-66 1.69547e-65 4.79374e-65 1.33382e-64 3.65151e-64 9.83361e-64 2.60453e-63 6.78317e-63 1.73672e-62 4.37049e-62 1.08078e-61 2.62578e-61 6.26607e-61 1.46843e-60 3.37856e-60 7.63014e-60 1.69105e-59 3.6771e-59 7.84289e-59 1.64048e-58 3.36424e-58 6.76278e-58 1.33226e-57 2.57144e-57 4.86174e-57 9.00206e-57 1.63205e-56 2.8965e-56 5.03128e-56 8.55192e-56 1.42217e-55 2.3135e-55 3.68087e-55 5.72711e-55 8.71309e-55 1.29604e-54 1.88472e-54 2.67939e-54 3.72375e-54 5.05934e-54 6.72056e-54 8.72906e-54 1.10881e-53 1.37777e-53 1.6752e-53 1.9939e-53 2.32443e-53 2.65573e-53 2.97616e-53 3.2746e-53 3.54167e-53 3.77079e-53 3.95885e-53 4.1066e-53 4.21839e-53 4.30164e-53 4.36573e-53 4.42087e-53 4.47675e-53 4.54143e-53 4.62042e-53 4.71627e-53 4.82845e-53 4.95377e-53 5.08706e-53 5.22214e-53 5.35278e-53 5.47365e-53 5.58098e-53 5.67298e-53 5.74989e-53 5.8137e-53 5.86767e-53 5.91568e-53 5.96159e-53 6.00861e-53 6.05887e-53 6.11317e-53 6.17086e-53 6.22999e-53 6.28749e-53 6.33946e-53 6.38158e-53 6.40941e-53 6.41882e-53 6.40626e-53 6.36911e-53 6.30589e-53 6.21642e-53 6.10191e-53 5.96488e-53 5.80904e-53 5.63912e-53 5.46055e-53 5.27922e-53 5.10117e-53 4.93226e-53 4.77796e-53 4.643e-53 4.53116e-53 4.44497e-53 4.38558e-53 4.35264e-53 4.34431e-53 4.35743e-53 4.38785e-53 4.43089e-53 4.48182e-53 4.53634e-53 4.59105e-53 4.64367e-53 4.69311e-53 4.73932e-53 4.78306e-53 4.8254e-53 4.86739e-53 4.90963e-53 4.95209e-53 4.99406e-53 5.03429e-53 5.07136e-53 5.10408e-53 5.13199e-53 5.15569e-53 5.17708e-53 5.19926e-53 5.22623e-53 5.26237e-53 5.31168e-53 5.37703e-53 5.45951e-53 5.55785e-53 5.66822e-53 5.78436e-53 5.89789e-53 5.99901e-53 6.07729e-53 6.12252e-53 6.12556e-53 6.07901e-53 5.97772e-53 5.81912e-53 5.60333e-53 5.33316e-53 5.01383e-53 4.65277e-53 4.25915e-53 3.84342e-53 3.41671e-53 2.99029e-53 2.57485e-53 2.18001e-53 1.81373e-53 1.48204e-53 1.18877e-53 9.35582e-54 7.22167e-54 5.46522e-54 4.05375e-54 2.94626e-54 2.09777e-54 1.46299e-54 9.99231e-55 6.68331e-55 4.37717e-55 2.80712e-55 1.76276e-55 1.08394e-55 6.5271e-56 3.84919e-56 2.22328e-56 1.25788e-56 6.97212e-57 3.78639e-57 2.01506e-57 1.05105e-57 5.37404e-58 2.69401e-58 1.32434e-58 6.38524e-59 3.0201e-59 1.40157e-59 6.38326e-60 2.8536e-60 1.25243e-60 5.39771e-61 2.28482e-61 9.50099e-62 3.88192e-62 1.55874e-62 6.15229e-63 2.38738e-63 9.10996e-64 3.41903e-64 1.26232e-64 4.58557e-65 1.63931e-65 5.76837e-66 1.99825e-66 6.81592e-67 2.28943e-67 7.5688e-68 2.44556e-68 7.14911e-69 0 
0 1.92415e-95 1.04856e-94 5.47493e-94 2.82824e-93 1.44695e-92 7.33109e-92 3.67814e-91 1.82724e-90 8.98731e-90 4.37618e-89 2.10937e-88 1.00638e-87 4.75206e-87 2.22062e-86 1.02682e-85 4.69786e-85 2.12642e-84 9.52133e-84 4.21697e-83 1.84719e-82 8.00177e-82 3.42749e-81 1.45155e-80 6.07727e-80 2.51508e-79 1.02876e-78 4.15855e-78 1.66106e-77 6.5552e-77 2.55561e-76 9.84128e-76 3.74285e-75 1.40569e-74 5.21259e-74 1.90825e-73 6.8956e-73 2.45925e-72 8.65495e-72 3.00533e-71 1.02949e-70 3.47842e-70 1.15907e-69 3.8083e-69 1.23361e-68 3.93893e-68 1.23953e-67 3.84361e-67 1.17422e-66 3.53355e-66 1.04723e-65 3.05608e-65 8.78004e-65 2.48287e-64 6.90957e-64 1.89192e-63 5.09592e-63 1.34996e-62 3.51646e-62 9.00509e-62 2.2666e-61 5.60621e-61 1.36232e-60 3.25168e-60 7.62179e-60 1.754e-59 3.96209e-59 8.78301e-59 1.91023e-58 4.07524e-58 8.52593e-58 1.74885e-57 3.51631e-57 6.92857e-57 1.33759e-56 2.52949e-56 4.68459e-56 8.49475e-56 1.50792e-55 2.61978e-55 4.4538e-55 7.4079e-55 1.20528e-54 1.91795e-54 2.9846e-54 4.54133e-54 6.75594e-54 9.8257e-54 1.397e-53 1.9417e-53 2.63833e-53 3.50485e-53 4.55254e-53 5.78308e-53 7.18605e-53 8.73748e-53 1.03998e-52 1.21237e-52 1.38514e-52 1.55222e-52 1.7078e-52 1.84701e-52 1.96639e-52 2.06434e-52 2.14123e-52 2.19936e-52 2.24257e-52 2.27577e-52 2.30427e-52 2.33313e-52 2.36654e-52 2.40738e-52 2.45699e-52 2.51509e-52 2.58002e-52 2.64911e-52 2.71914e-52 2.78688e-52 2.84956e-52 2.90521e-52 2.95291e-52 2.99278e-52 3.02585e-52 3.05382e-52 3.07869e-52 3.10247e-52 3.12683e-52 3.15287e-52 3.18101e-52 3.21091e-52 3.24157e-52 3.27138e-52 3.29834e-52 3.3202e-52 3.33465e-52 3.33956e-52 3.33308e-52 3.31385e-52 3.28111e-52 3.23475e-52 3.1754e-52 3.10437e-52 3.02357e-52 2.93547e-52 2.84287e-52 2.74884e-52 2.65649e-52 2.56889e-52 2.48887e-52 2.41887e-52 2.36087e-52 2.31618e-52 2.28541e-52 2.26836e-52 2.26408e-52 2.27093e-52 2.28676e-52 2.30913e-52 2.33558e-52 2.36389e-52 2.39228e-52 2.41956e-52 2.44519e-52 2.46913e-52 2.49178e-52 2.5137e-52 2.53545e-52 2.55733e-52 2.57933e-52 2.60109e-52 2.62195e-52 2.64117e-52 2.65813e-52 2.6726e-52 2.68488e-52 2.69595e-52 2.70742e-52 2.72137e-52 2.74007e-52 2.76559e-52 2.79944e-52 2.84217e-52 2.89314e-52 2.95036e-52 3.01057e-52 3.06945e-52 3.1219e-52 3.1625e-52 3.18597e-52 3.18756e-52 3.1634e-52 3.11084e-52 3.02851e-52 2.91647e-52 2.77615e-52 2.61027e-52 2.42265e-52 2.21804e-52 2.00188e-52 1.77993e-52 1.55806e-52 1.34184e-52 1.13627e-52 9.45518e-53 7.72725e-53 6.19905e-53 4.87944e-53 3.76685e-53 2.85098e-53 2.11486e-53 1.53719e-53 1.09456e-53 7.63379e-54 5.21404e-54 3.4874e-54 2.28401e-54 1.46471e-54 9.19744e-55 5.65527e-55 3.40515e-55 2.00793e-55 1.15966e-55 6.56036e-56 3.63579e-56 1.97425e-56 1.05052e-56 5.47864e-57 2.80081e-57 1.40382e-57 6.89982e-58 3.32615e-58 1.57293e-58 7.29836e-59 3.32334e-59 1.48541e-59 6.51816e-60 2.80868e-60 1.18868e-60 4.94198e-61 2.01883e-61 8.10491e-62 3.19841e-62 1.24092e-62 4.73435e-63 1.77653e-63 6.5579e-64 2.38187e-64 8.51367e-65 2.9953e-65 1.03746e-65 3.53819e-66 1.18828e-66 3.9279e-67 1.26898e-67 3.70921e-68 0 
0 9.84817e-95 5.36646e-94 2.80188e-93 1.44732e-92 7.40427e-92 3.75128e-91 1.88201e-90 9.34914e-90 4.59825e-89 2.23895e-88 1.07917e-87 5.1486e-87 2.43109e-86 1.13602e-85 5.25291e-85 2.40327e-84 1.0878e-83 4.87078e-83 2.15726e-82 9.44968e-82 4.09352e-81 1.75345e-80 7.42606e-80 3.10917e-79 1.28677e-78 5.26353e-78 2.12776e-77 8.49929e-77 3.35432e-76 1.30778e-75 5.03638e-75 1.91556e-74 7.1947e-74 2.66814e-73 9.76839e-73 3.53017e-72 1.25912e-71 4.43168e-71 1.539e-70 5.27246e-70 1.78165e-69 5.93744e-69 1.95108e-68 6.32087e-68 2.01852e-67 6.35291e-67 1.97023e-66 6.01996e-66 1.81185e-65 5.3706e-65 1.56754e-64 4.50426e-64 1.27396e-63 3.54596e-63 9.71107e-63 2.61619e-62 6.93191e-62 1.80603e-61 4.62591e-61 1.16459e-60 2.88113e-60 7.00273e-60 1.67183e-59 3.91956e-59 9.02209e-59 2.03846e-58 4.51981e-58 9.83249e-58 2.09812e-57 4.39056e-57 9.00807e-57 1.81161e-56 3.57043e-56 6.89444e-56 1.30408e-55 2.41567e-55 4.38136e-55 7.77903e-55 1.35176e-54 2.29853e-54 3.82381e-54 6.22249e-54 9.90346e-54 1.54136e-53 2.34566e-53 3.49001e-53 5.07641e-53 7.21834e-53 1.00338e-52 1.36347e-52 1.81141e-52 2.35301e-52 2.98914e-52 3.71441e-52 4.51638e-52 5.37564e-52 6.26663e-52 7.15951e-52 8.02284e-52 8.82663e-52 9.5456e-52 1.0162e-51 1.06674e-51 1.1064e-51 1.13634e-51 1.15855e-51 1.17559e-51 1.19018e-51 1.20494e-51 1.22203e-51 1.24295e-51 1.26839e-51 1.2982e-51 1.33154e-51 1.36702e-51 1.403e-51 1.4378e-51 1.47e-51 1.49859e-51 1.5231e-51 1.54358e-51 1.56056e-51 1.57492e-51 1.58768e-51 1.59989e-51 1.61239e-51 1.62576e-51 1.64021e-51 1.65557e-51 1.67131e-51 1.68663e-51 1.70049e-51 1.71173e-51 1.71917e-51 1.72171e-51 1.7184e-51 1.70854e-51 1.69173e-51 1.66793e-51 1.63745e-51 1.60097e-51 1.55946e-51 1.5142e-51 1.46662e-51 1.4183e-51 1.37085e-51 1.32583e-51 1.28471e-51 1.24874e-51 1.21893e-51 1.19598e-51 1.18018e-51 1.17143e-51 1.16926e-51 1.1728e-51 1.18097e-51 1.19249e-51 1.2061e-51 1.22066e-51 1.23525e-51 1.24928e-51 1.26243e-51 1.27472e-51 1.28634e-51 1.29759e-51 1.30875e-51 1.31998e-51 1.33128e-51 1.34245e-51 1.35316e-51 1.36304e-51 1.37175e-51 1.37918e-51 1.38549e-51 1.39116e-51 1.39704e-51 1.40419e-51 1.41377e-51 1.42686e-51 1.44424e-51 1.46617e-51 1.49234e-51 1.52174e-51 1.55268e-51 1.58293e-51 1.60989e-51 1.63076e-51 1.64283e-51 1.64365e-51 1.63124e-51 1.60421e-51 1.56187e-51 1.50423e-51 1.43202e-51 1.34663e-51 1.25003e-51 1.14465e-51 1.03327e-51 9.18877e-52 8.04484e-52 6.92966e-52 5.86908e-52 4.88464e-52 3.99263e-52 3.2035e-52 2.52191e-52 1.94711e-52 1.47385e-52 1.09341e-52 7.94803e-53 5.65971e-53 3.9474e-53 2.69621e-53 1.80336e-53 1.18106e-53 7.57376e-54 4.75558e-54 2.9239e-54 1.76039e-54 1.03796e-54 5.99398e-55 3.39049e-55 1.87878e-55 1.02004e-55 5.42694e-56 2.8298e-56 1.44642e-56 7.2485e-57 3.56202e-57 1.71681e-57 8.11725e-58 3.76567e-58 1.71438e-58 7.66116e-59 3.36117e-59 1.44805e-59 6.12718e-60 2.54691e-60 1.04023e-60 4.17535e-61 1.64739e-61 6.39033e-62 2.4376e-62 9.14526e-63 3.37529e-63 1.22571e-63 4.38039e-64 1.54086e-64 5.33609e-65 1.81956e-65 6.10998e-66 2.01937e-66 6.52302e-67 1.90645e-67 0 
0 4.9917e-94 2.71995e-93 1.42004e-92 7.33494e-92 3.75227e-91 1.90096e-90 9.53675e-90 4.73736e-89 2.32993e-88 1.13445e-87 5.46789e-87 2.60862e-86 1.23173e-85 5.75565e-85 2.66137e-84 1.2176e-83 5.51128e-83 2.46776e-82 1.09297e-81 4.78773e-81 2.07403e-80 8.88426e-80 3.76268e-79 1.57542e-78 6.5203e-78 2.66723e-77 1.07826e-76 4.3073e-76 1.70001e-75 6.62837e-75 2.5528e-74 9.71013e-74 3.64731e-73 1.3527e-72 4.95284e-72 1.79006e-71 6.38525e-71 2.24763e-70 7.80623e-70 2.67463e-69 9.03909e-69 3.0127e-68 9.90118e-68 3.2081e-67 1.02463e-66 3.22529e-66 1.00042e-65 3.0572e-65 9.20288e-65 2.72835e-64 7.96472e-64 2.28905e-63 6.47544e-63 1.80273e-62 4.93797e-62 1.33058e-61 3.52625e-61 9.18921e-61 2.3542e-60 5.92812e-60 1.46691e-59 3.56621e-59 8.51593e-59 1.99701e-58 4.59783e-58 1.03909e-57 2.30449e-57 5.01446e-57 1.07028e-56 2.24023e-56 4.59737e-56 9.24799e-56 1.82309e-55 3.52118e-55 6.66184e-55 1.23432e-54 2.23922e-54 3.97656e-54 6.91154e-54 1.17548e-53 1.95589e-53 3.18341e-53 5.06748e-53 7.88826e-53 1.20063e-52 1.78662e-52 2.59906e-52 3.69613e-52 5.13826e-52 6.98291e-52 9.27762e-52 1.20523e-51 1.53112e-51 1.90267e-51 2.3135e-51 2.75365e-51 3.21001e-51 3.66728e-51 4.10934e-51 4.52083e-51 4.8888e-51 5.20413e-51 5.46258e-51 5.66516e-51 5.81794e-51 5.93111e-51 6.01766e-51 6.09162e-51 6.16638e-51 6.25301e-51 6.35917e-51 6.48836e-51 6.63991e-51 6.80948e-51 6.99005e-51 7.17315e-51 7.35032e-51 7.51425e-51 7.65981e-51 7.78454e-51 7.88875e-51 7.97515e-51 8.04816e-51 8.11308e-51 8.17514e-51 8.23871e-51 8.30671e-51 8.38022e-51 8.45838e-51 8.53854e-51 8.61654e-51 8.68711e-51 8.74438e-51 8.78233e-51 8.79533e-51 8.77858e-51 8.72849e-51 8.64304e-51 8.52198e-51 8.36689e-51 8.18121e-51 7.96996e-51 7.73953e-51 7.49732e-51 7.25131e-51 7.00971e-51 6.78049e-51 6.57109e-51 6.38796e-51 6.23623e-51 6.11939e-51 6.039e-51 5.99458e-51 5.98362e-51 6.00181e-51 6.0435e-51 6.10229e-51 6.17171e-51 6.24591e-51 6.32026e-51 6.39165e-51 6.4586e-51 6.52109e-51 6.58016e-51 6.63734e-51 6.69404e-51 6.75114e-51 6.80861e-51 6.86546e-51 6.92e-51 6.97026e-51 7.01464e-51 7.05245e-51 7.0845e-51 7.11334e-51 7.14317e-51 7.17945e-51 7.22812e-51 7.29465e-51 7.38297e-51 7.49456e-51 7.62773e-51 7.77733e-51 7.93483e-51 8.08889e-51 8.22618e-51 8.33253e-51 8.39405e-51 8.39827e-51 8.33507e-51 8.19739e-51 7.98162e-51 7.68783e-51 7.31968e-51 6.88418e-51 6.39131e-51 5.85347e-51 5.28486e-51 4.70065e-51 4.11623e-51 3.5463e-51 3.00409e-51 2.50065e-51 2.04433e-51 1.64053e-51 1.29166e-51 9.97393e-52 7.55051e-52 5.602e-52 4.07242e-52 2.90009e-52 2.02276e-52 1.38163e-52 9.24103e-53 6.05203e-53 3.88083e-53 2.43665e-53 1.49803e-53 9.01842e-54 5.31688e-54 3.07002e-54 1.73633e-54 9.62025e-55 5.22233e-55 2.77799e-55 1.4483e-55 7.40152e-56 3.70848e-56 1.82206e-56 8.7802e-57 4.15055e-57 1.92509e-57 8.76253e-58 3.91496e-58 1.71725e-58 7.39668e-59 3.12915e-59 1.30044e-59 5.31026e-60 2.13105e-60 8.40639e-61 3.26025e-61 1.24338e-61 4.66398e-62 1.72103e-62 6.24868e-63 2.23272e-63 7.85253e-64 2.71891e-64 9.26967e-65 3.1122e-65 1.02843e-65 3.32158e-66 9.70664e-67 0 
0 2.50544e-93 1.36513e-92 7.12682e-92 3.68106e-91 1.88301e-90 9.53931e-90 4.78551e-89 2.37712e-88 1.16909e-87 5.69217e-87 2.7435e-86 1.30885e-85 6.18e-85 2.88778e-84 1.33528e-83 6.10904e-83 2.76517e-82 1.23815e-81 5.48387e-81 2.40223e-80 1.04066e-79 4.45785e-79 1.88806e-78 7.90548e-78 3.27202e-77 1.33853e-76 5.41145e-76 2.16181e-75 8.53277e-75 3.32716e-74 1.28149e-73 4.87477e-73 1.83121e-72 6.7921e-72 2.48711e-71 8.98979e-71 3.20704e-70 1.12901e-69 3.92162e-69 1.34382e-68 4.54209e-68 1.51406e-67 4.97662e-67 1.61272e-66 5.15159e-66 1.62185e-65 5.03145e-65 1.53784e-64 4.63005e-64 1.3729e-63 4.00858e-63 1.15228e-62 3.26031e-62 9.07835e-62 2.48723e-61 6.70348e-61 1.77692e-60 4.6316e-60 1.18685e-59 2.98931e-59 7.39877e-59 1.79915e-58 4.29733e-58 1.00799e-57 2.32133e-57 5.2474e-57 1.16407e-56 2.5336e-56 5.40906e-56 1.13247e-55 2.32465e-55 4.67741e-55 9.22304e-55 1.78182e-54 3.37191e-54 6.24907e-54 1.13393e-53 2.01418e-53 3.50155e-53 5.95652e-53 9.91317e-53 1.61379e-52 2.56937e-52 4.00028e-52 6.08959e-52 9.06305e-52 1.31862e-51 1.87543e-51 2.60745e-51 3.54384e-51 4.70875e-51 6.11735e-51 7.7718e-51 9.658e-51 1.17435e-50 1.39777e-50 1.62939e-50 1.86145e-50 2.08574e-50 2.29447e-50 2.48107e-50 2.64091e-50 2.77183e-50 2.87437e-50 2.95159e-50 3.00869e-50 3.05223e-50 3.08936e-50 3.12685e-50 3.17034e-50 3.22369e-50 3.28869e-50 3.36501e-50 3.45047e-50 3.5415e-50 3.63383e-50 3.72319e-50 3.80587e-50 3.87928e-50 3.94218e-50 3.99472e-50 4.03826e-50 4.07505e-50 4.10775e-50 4.13901e-50 4.17104e-50 4.20531e-50 4.24236e-50 4.28177e-50 4.32219e-50 4.36154e-50 4.39715e-50 4.42606e-50 4.44525e-50 4.45185e-50 4.44345e-50 4.41824e-50 4.3752e-50 4.31419e-50 4.23601e-50 4.14238e-50 4.03585e-50 3.91964e-50 3.79747e-50 3.67338e-50 3.5515e-50 3.43587e-50 3.33023e-50 3.23785e-50 3.16132e-50 3.1024e-50 3.06189e-50 3.03953e-50 3.03406e-50 3.04331e-50 3.06442e-50 3.09414e-50 3.12921e-50 3.16668e-50 3.2042e-50 3.24021e-50 3.27395e-50 3.30544e-50 3.33518e-50 3.36397e-50 3.39253e-50 3.42129e-50 3.45025e-50 3.47891e-50 3.50641e-50 3.53176e-50 3.55414e-50 3.5732e-50 3.58935e-50 3.60386e-50 3.61886e-50 3.63711e-50 3.66159e-50 3.69508e-50 3.73957e-50 3.79581e-50 3.86295e-50 3.93839e-50 4.01784e-50 4.09557e-50 4.16485e-50 4.21854e-50 4.24961e-50 4.25177e-50 4.21991e-50 4.15043e-50 4.0415e-50 3.89314e-50 3.70717e-50 3.4871e-50 3.23796e-50 2.966e-50 2.67838e-50 2.38275e-50 2.08691e-50 1.79831e-50 1.52364e-50 1.26853e-50 1.03723e-50 8.32484e-51 6.55547e-51 5.06264e-51 3.83296e-51 2.84408e-51 2.06768e-51 1.47253e-51 1.0271e-51 7.01563e-52 4.69236e-52 3.07299e-52 1.97045e-52 1.23711e-52 7.60503e-53 4.57794e-53 2.69867e-53 1.55805e-53 8.81074e-54 4.88092e-54 2.64917e-54 1.40897e-54 7.34435e-55 3.75262e-55 1.87986e-55 9.23435e-56 4.44897e-56 2.10267e-56 9.75045e-57 4.43721e-57 1.98205e-57 8.69213e-58 3.74313e-58 1.58318e-58 6.57809e-59 2.68555e-59 1.0775e-59 4.24955e-60 1.64776e-60 6.28289e-61 2.35626e-61 8.69302e-62 3.15562e-62 1.12732e-62 3.96409e-63 1.3723e-63 4.67782e-64 1.57026e-64 5.18809e-65 1.67537e-65 4.89529e-66 0 
0 1.24515e-92 6.78416e-92 3.54159e-91 1.82919e-90 9.35668e-90 4.73992e-89 2.37777e-88 1.18108e-87 5.80854e-87 2.82806e-86 1.36304e-85 6.5026e-85 3.07032e-84 1.43469e-83 6.63385e-83 3.03506e-82 1.37379e-81 6.15146e-81 2.72457e-80 1.19353e-79 5.17059e-79 2.21498e-78 9.38154e-78 3.9283e-77 1.62597e-76 6.65191e-76 2.6894e-75 1.07445e-74 4.24117e-74 1.65386e-73 6.37048e-73 2.42353e-72 9.10477e-72 3.37735e-71 1.23683e-70 4.47105e-70 1.59519e-69 5.61638e-69 1.95108e-68 6.68661e-68 2.26037e-67 7.53579e-67 2.47733e-66 8.02922e-66 2.56523e-65 8.07733e-65 2.50625e-64 7.66158e-64 2.30713e-63 6.84241e-63 1.99823e-62 5.74515e-62 1.62589e-61 4.52828e-61 1.2409e-60 3.34518e-60 8.86927e-60 2.31234e-59 5.92682e-59 1.49315e-58 3.69658e-58 8.99122e-58 2.14813e-57 5.03999e-57 1.16098e-56 2.62512e-56 5.82505e-56 1.26817e-55 2.70817e-55 5.67153e-55 1.16451e-54 2.34374e-54 4.62268e-54 8.933e-54 1.69091e-53 3.13452e-53 5.68917e-53 1.0108e-52 1.75764e-52 2.99061e-52 4.97822e-52 8.10583e-52 1.29081e-51 2.01004e-51 3.06039e-51 4.55544e-51 6.62881e-51 9.42914e-51 1.31109e-50 1.7821e-50 2.36809e-50 3.07667e-50 3.90893e-50 4.85775e-50 5.90678e-50 7.03049e-50 8.19533e-50 9.36216e-50 1.04897e-49 1.15388e-49 1.24763e-49 1.3279e-49 1.39361e-49 1.44502e-49 1.48368e-49 1.51221e-49 1.5339e-49 1.55236e-49 1.57097e-49 1.59258e-49 1.61914e-49 1.65154e-49 1.68961e-49 1.73227e-49 1.77773e-49 1.82386e-49 1.86851e-49 1.90982e-49 1.9465e-49 1.97792e-49 2.00416e-49 2.0259e-49 2.04427e-49 2.06058e-49 2.07618e-49 2.09217e-49 2.10927e-49 2.12777e-49 2.14746e-49 2.16766e-49 2.18732e-49 2.20513e-49 2.21959e-49 2.22919e-49 2.23252e-49 2.22835e-49 2.21578e-49 2.1943e-49 2.16384e-49 2.1248e-49 2.07803e-49 2.02481e-49 1.96674e-49 1.9057e-49 1.84368e-49 1.78277e-49 1.72499e-49 1.67219e-49 1.62603e-49 1.58778e-49 1.55835e-49 1.53812e-49 1.52698e-49 1.52428e-49 1.52894e-49 1.53952e-49 1.55441e-49 1.57197e-49 1.59071e-49 1.60947e-49 1.62746e-49 1.64431e-49 1.66002e-49 1.67486e-49 1.68921e-49 1.70346e-49 1.71781e-49 1.73227e-49 1.74658e-49 1.76032e-49 1.77299e-49 1.78417e-49 1.79369e-49 1.80175e-49 1.80898e-49 1.81645e-49 1.82554e-49 1.83774e-49 1.85444e-49 1.87665e-49 1.90472e-49 1.93826e-49 1.97595e-49 2.01566e-49 2.05451e-49 2.08915e-49 2.11601e-49 2.13156e-49 2.13266e-49 2.11675e-49 2.08202e-49 2.02754e-49 1.95332e-49 1.86025e-49 1.75009e-49 1.62532e-49 1.48908e-49 1.34493e-49 1.19672e-49 1.04835e-49 9.03547e-50 7.65692e-50 6.37607e-50 5.21437e-50 4.18577e-50 3.29661e-50 2.54622e-50 1.92798e-50 1.4307e-50 1.04021e-50 7.40843e-51 5.16757e-51 3.52977e-51 2.36084e-51 1.54605e-51 9.91305e-52 6.22329e-52 3.8254e-52 2.30251e-52 1.35716e-52 7.83436e-53 4.42968e-53 2.45354e-53 1.33146e-53 7.08016e-54 3.68987e-54 1.88498e-54 9.4408e-55 4.63658e-55 2.23335e-55 1.05529e-55 4.8925e-56 2.22596e-56 9.94085e-57 4.3585e-57 1.87649e-57 7.93491e-58 3.29619e-58 1.34539e-58 5.39679e-59 2.12796e-59 8.24937e-60 3.14479e-60 1.17914e-60 4.34931e-61 1.5785e-61 5.63797e-62 1.98213e-62 6.86051e-63 2.33813e-63 7.8473e-64 2.59227e-64 8.36971e-65 2.44523e-65 0 
0 6.12674e-92 3.33799e-91 1.74249e-90 8.9994e-90 4.60323e-89 2.33184e-88 1.16973e-87 5.81015e-87 2.85736e-86 1.39117e-85 6.70494e-85 3.19867e-84 1.5103e-83 7.05728e-83 3.26323e-82 1.49298e-81 6.75788e-81 3.02605e-80 1.34031e-79 5.87155e-79 2.54374e-78 1.08972e-77 4.61571e-77 1.93281e-76 8.00052e-76 3.27323e-75 1.32346e-74 5.28774e-74 2.08738e-73 8.14044e-73 3.13586e-72 1.19308e-71 4.48262e-71 1.66296e-70 6.09063e-70 2.20196e-69 7.85713e-69 2.7667e-68 9.61253e-68 3.29478e-67 1.11394e-66 3.71429e-66 1.22123e-65 3.95875e-65 1.26498e-64 3.98384e-64 1.23634e-63 3.78018e-63 1.13855e-62 3.37734e-62 9.86509e-62 2.83693e-61 8.03036e-61 2.23704e-60 6.13167e-60 1.65334e-59 4.38467e-59 1.14343e-58 2.93149e-58 7.38722e-58 1.82933e-57 4.45068e-57 1.06362e-56 2.49617e-56 5.75162e-56 1.30087e-55 2.8874e-55 6.28791e-55 1.34317e-54 2.81369e-54 5.77888e-54 1.1634e-53 2.29528e-53 4.43669e-53 8.40043e-53 1.55764e-52 2.82786e-52 5.02556e-52 8.74091e-52 1.48761e-51 2.47686e-51 4.03384e-51 6.42498e-51 1.00069e-50 1.52387e-50 2.26867e-50 3.30173e-50 4.69715e-50 6.532e-50 8.87947e-50 1.18001e-49 1.53319e-49 1.94802e-49 2.42092e-49 2.94374e-49 3.50373e-49 4.08414e-49 4.66545e-49 5.22709e-49 5.74947e-49 6.21612e-49 6.61546e-49 6.94213e-49 7.19745e-49 7.38916e-49 7.53028e-49 7.6373e-49 7.72808e-49 7.81959e-49 7.92594e-49 8.05683e-49 8.21675e-49 8.4049e-49 8.61586e-49 8.84078e-49 9.06907e-49 9.29004e-49 9.49453e-49 9.67607e-49 9.83156e-49 9.96138e-49 1.00689e-48 1.01597e-48 1.02403e-48 1.03174e-48 1.03965e-48 1.0481e-48 1.05726e-48 1.067e-48 1.07699e-48 1.08673e-48 1.09555e-48 1.10272e-48 1.10748e-48 1.10914e-48 1.10709e-48 1.10089e-48 1.09027e-48 1.0752e-48 1.05589e-48 1.03275e-48 1.00641e-48 9.77665e-49 9.47447e-49 9.16748e-49 8.86593e-49 8.57983e-49 8.31846e-49 8.08991e-49 7.90063e-49 7.75498e-49 7.65493e-49 7.59989e-49 7.5867e-49 7.60995e-49 7.66255e-49 7.73643e-49 7.82348e-49 7.91637e-49 8.00926e-49 8.09829e-49 8.18162e-49 8.25928e-49 8.3326e-49 8.40353e-49 8.47391e-49 8.54486e-49 8.61635e-49 8.68716e-49 8.75516e-49 8.81786e-49 8.8732e-49 8.92029e-49 8.96012e-49 8.99584e-49 9.0327e-49 9.07752e-49 9.13775e-49 9.22026e-49 9.33001e-49 9.46888e-49 9.6348e-49 9.82137e-49 1.0018e-48 1.02104e-48 1.0382e-48 1.05151e-48 1.05922e-48 1.05978e-48 1.05191e-48 1.03472e-48 1.00773e-48 9.7095e-49 9.24812e-49 8.70178e-49 8.08281e-49 7.40665e-49 6.69098e-49 5.95485e-49 5.21763e-49 4.49788e-49 3.8124e-49 3.17527e-49 2.59722e-49 2.08523e-49 1.64252e-49 1.26881e-49 9.60845e-50 7.13085e-50 5.18496e-50 3.69293e-50 2.57599e-50 1.75957e-50 1.17685e-50 7.70661e-51 4.94109e-51 3.10172e-51 1.90642e-51 1.14735e-51 6.76193e-52 3.90286e-52 2.2064e-52 1.22189e-52 6.62961e-53 3.52469e-53 1.83655e-53 9.38009e-54 4.69694e-54 2.30626e-54 1.11063e-54 5.24667e-55 2.43186e-55 1.10617e-55 4.93884e-56 2.16488e-56 9.31834e-57 3.9394e-57 1.63605e-57 6.67618e-58 2.6774e-58 1.05546e-58 4.0907e-59 1.55909e-59 5.84447e-60 2.15529e-60 7.82057e-61 2.7927e-61 9.81622e-62 3.39688e-62 1.15747e-62 3.88398e-63 1.28279e-63 4.14106e-64 1.20964e-64 0 