# vtk DataFile Version 3.0
Gray-Scott Simulation Output
ASCII
DATASET STRUCTURED_POINTS
DIMENSIONS 256 256 1
SPACING 1.0 1.0 1.0
ORIGIN 0 0 0
POINT_DATA 65536
SCALARS u double
LOOKUP_TABLE default
0 0 0 0 0 0 0 0 0 0 0 0 0 0 0 0 0 0 0 0 0 0 0 0 0 0 0 0 0 0 0 0 0 0 0 0 0 0 0 0 0 0 0 0 0 0 0 0 0 0 0 0 0 0 0 0 0 0 0 0 0 0 0 0 0 0 0 0 0 0 0 0 0 0 0 0 0 0 0 0 0 0 0 0 0 0 0 0 0 0 0 0 0 0 0 0 0 0 0 0 0 0 0 0 0 0 0 0 0 0 0 0 0 0 0 0 0 0 0 0 0 0 0 0 0 0 0 0 0 0 0 0 0 0 0 0 0 0 0 0 0 0 0 0 0 0 0 0 0 0 0 0 0 0 0 0 0 0 0 0 0 0 0 0 0 0 0 0 0 0 0 0 0 0 0 0 0 0 0 0 0 0 0 0 0 0 0 0 0 0 0 0 0 0 0 0 0 0 0 0 0 0 0 0 0 0 0 0 0 0 0 0 0 0 0 0 0 0 0 0 0 0 0 0 0 0 0 0 0 0 0 0 0 0 0 0 0 0 0 0 0 0 0 0 0 0 0 0 0 0 0 0 0 0 0 0 
0 6.82778e-86 2.96204e-85 1.2077e-84 4.86553e-84 1.94222e-83 7.6825e-83 3.01104e-82 1.16925e-81 4.49827e-81 1.71434e-80 6.47185e-80 2.41996e-79 8.96193e-79 3.28681e-78 1.19369e-77 4.29259e-77 1.52834e-76 5.38713e-76 1.87973e-75 6.49227e-75 2.21933e-74 7.50817e-74 2.51358e-73 8.32645e-73 2.72894e-72 8.84816e-72 2.8379e-71 9.00293e-71 2.82469e-70 8.76421e-70 2.68886e-69 8.15623e-69 2.44587e-68 7.25025e-68 2.12423e-67 6.15081e-67 1.75993e-66 4.97559e-66 1.38972e-65 3.83439e-65 1.04496e-64 2.81244e-64 7.47478e-64 1.96151e-63 5.08164e-63 1.29953e-62 3.28007e-62 8.1703e-62 2.00814e-61 4.86959e-61 1.16487e-60 2.74847e-60 6.39548e-60 1.46745e-59 3.31974e-59 7.40344e-59 1.62738e-58 3.52543e-58 7.52557e-58 1.58274e-57 3.27912e-57 6.6915e-57 1.34476e-56 2.66108e-56 5.18445e-56 9.94294e-56 1.87687e-55 3.48656e-55 6.37303e-55 1.14609e-54 2.0275e-54 3.52786e-54 6.03691e-54 1.01582e-53 1.68061e-53 2.73347e-53 4.3703e-53 6.86775e-53 1.06067e-52 1.60982e-52 2.40086e-52 3.51822e-52 5.06552e-52 7.1656e-52 9.95861e-52 1.35976e-51 1.82409e-51 2.40421e-51 3.11363e-51 3.9625e-51 4.95607e-51 6.09316e-51 7.3651e-51 8.75508e-51 1.02383e-50 1.17829e-50 1.33519e-50 1.49055e-50 1.64042e-50 1.7812e-50 1.90994e-50 2.0246e-50 2.12416e-50 2.20875e-50 2.27948e-50 2.33836e-50 2.38798e-50 2.43123e-50 2.47095e-50 2.50969e-50 2.54942e-50 2.59142e-50 2.63621e-50 2.68365e-50 2.73302e-50 2.7832e-50 2.83294e-50 2.88102e-50 2.92642e-50 2.96847e-50 3.00687e-50 3.04172e-50 3.07339e-50 3.10247e-50 3.12962e-50 3.1554e-50 3.1802e-50 3.20414e-50 3.227e-50 3.24824e-50 3.26703e-50 3.28227e-50 3.29276e-50 3.29723e-50 3.2945e-50 3.28357e-50 3.26371e-50 3.23455e-50 3.19614e-50 3.14894e-50 3.09385e-50 3.03218e-50 2.96556e-50 2.89588e-50 2.82521e-50 2.75569e-50 2.68936e-50 2.62815e-50 2.57371e-50 2.52732e-50 2.48986e-50 2.46176e-50 2.44299e-50 2.43307e-50 2.43118e-50 2.4362e-50 2.44685e-50 2.46179e-50 2.47975e-50 2.49961e-50 2.52046e-50 2.54163e-50 2.56266e-50 2.58332e-50 2.60348e-50 2.62309e-50 2.64214e-50 2.66057e-50 2.67833e-50 2.69538e-50 2.7117e-50 2.72741e-50 2.74277e-50 2.75822e-50 2.77441e-50 2.7921e-50 2.81211e-50 2.8352e-50 2.8619e-50 2.89234e-50 2.92619e-50 2.9625e-50 2.99971e-50 3.03562e-50 3.06756e-50 3.09246e-50 3.10708e-50 3.10822e-50 3.09292e-50 3.05869e-50 3.00365e-50 2.92672e-50 2.82766e-50 2.7071e-50 2.56658e-50 2.40843e-50 2.2357e-50 2.05198e-50 1.86123e-50 1.66761e-50 1.47524e-50 1.28799e-50 1.10937e-50 9.42279e-51 7.88983e-51 6.51019e-51 5.29205e-51 4.23677e-51 3.33977e-51 2.59161e-51 1.97929e-51 1.48751e-51 1.09991e-51 8.00109e-52 5.72522e-52 4.02951e-52 2.78937e-52 1.89906e-52 1.27156e-52 8.37347e-53 5.42307e-53 3.45437e-53 2.16418e-53 1.33364e-53 8.08412e-54 4.82064e-54 2.82805e-54 1.63237e-54 9.27124e-55 5.18188e-55 2.85045e-55 1.54334e-55 8.22583e-56 4.31637e-56 2.23013e-56 1.13466e-56 5.68569e-57 2.80628e-57 1.36448e-57 6.53651e-58 3.08549e-58 1.43535e-58 6.58114e-59 2.9745e-59 1.32541e-59 5.82325e-60 2.52301e-60 1.07811e-60 4.54413e-61 1.88937e-61 7.74793e-62 3.1276e-62 1.22566e-62 4.20421e-63 0 
0 2.96279e-85 1.2854e-84 5.24124e-84 2.11173e-83 8.43024e-83 3.33487e-82 1.30716e-81 5.07645e-81 1.95316e-80 7.44443e-80 2.81065e-79 1.05107e-78 3.89291e-78 1.4279e-77 5.1864e-77 1.86529e-76 6.64205e-76 2.34152e-75 8.17138e-75 2.82266e-74 9.65045e-74 3.26532e-73 1.09333e-72 3.62235e-72 1.1874e-71 3.85062e-71 1.23524e-70 3.91939e-70 1.22995e-69 3.81693e-69 1.17126e-68 3.55358e-68 1.06586e-67 3.16019e-67 9.26101e-67 2.68218e-66 7.6763e-66 2.17072e-65 6.06446e-65 1.67366e-64 4.56227e-64 1.22822e-63 3.26518e-63 8.57068e-63 2.221e-62 5.68137e-62 1.43441e-61 3.57398e-61 8.78688e-61 2.13139e-60 5.10011e-60 1.20372e-59 2.80183e-59 6.43084e-59 1.45528e-58 3.24648e-58 7.13851e-58 1.54693e-57 3.30322e-57 6.9494e-57 1.44025e-56 2.93999e-56 5.91028e-56 1.16994e-55 2.28006e-55 4.3742e-55 8.25953e-55 1.53481e-54 2.80633e-54 5.0483e-54 8.93338e-54 1.55487e-53 2.66146e-53 4.47964e-53 7.41325e-53 1.20606e-52 1.92873e-52 3.03163e-52 4.68316e-52 7.10926e-52 1.06047e-51 1.55428e-51 2.23821e-51 3.16658e-51 4.4014e-51 6.01034e-51 8.06347e-51 1.06286e-50 1.37654e-50 1.75187e-50 2.19114e-50 2.69381e-50 3.256e-50 3.87024e-50 4.52551e-50 5.20771e-50 5.9004e-50 6.58596e-50 7.24692e-50 7.86736e-50 8.43427e-50 8.93861e-50 9.37599e-50 9.74694e-50 1.00565e-49 1.03136e-49 1.05297e-49 1.07177e-49 1.08901e-49 1.10582e-49 1.12308e-49 1.14135e-49 1.16086e-49 1.18156e-49 1.20312e-49 1.22505e-49 1.24681e-49 1.26784e-49 1.2877e-49 1.3061e-49 1.32291e-49 1.33815e-49 1.35201e-49 1.36473e-49 1.37661e-49 1.38789e-49 1.39874e-49 1.40923e-49 1.41924e-49 1.42856e-49 1.4368e-49 1.44349e-49 1.4481e-49 1.45008e-49 1.4489e-49 1.44413e-49 1.43545e-49 1.42269e-49 1.40588e-49 1.38521e-49 1.36108e-49 1.33406e-49 1.30487e-49 1.27434e-49 1.24338e-49 1.21291e-49 1.18385e-49 1.15704e-49 1.13319e-49 1.11287e-49 1.09647e-49 1.08417e-49 1.07596e-49 1.07164e-49 1.07083e-49 1.07305e-49 1.07772e-49 1.08428e-49 1.09216e-49 1.10086e-49 1.10999e-49 1.11925e-49 1.12845e-49 1.13749e-49 1.1463e-49 1.15488e-49 1.1632e-49 1.17127e-49 1.17904e-49 1.18649e-49 1.19363e-49 1.2005e-49 1.20722e-49 1.21398e-49 1.22105e-49 1.22879e-49 1.23755e-49 1.24765e-49 1.25934e-49 1.27268e-49 1.28753e-49 1.30346e-49 1.31979e-49 1.33557e-49 1.34962e-49 1.36059e-49 1.36706e-49 1.36763e-49 1.36099e-49 1.34604e-49 1.32197e-49 1.28827e-49 1.24485e-49 1.19198e-49 1.13031e-49 1.06087e-49 9.84994e-50 9.04248e-50 8.20376e-50 7.35201e-50 6.50537e-50 5.68098e-50 4.89419e-50 4.15792e-50 3.48218e-50 2.87381e-50 2.33649e-50 1.87087e-50 1.47497e-50 1.1447e-50 8.74325e-51 6.5714e-51 4.85938e-51 3.53499e-51 2.52952e-51 1.78032e-51 1.23237e-51 8.38983e-52 5.61728e-52 3.69878e-52 2.39528e-52 1.52556e-52 9.55643e-53 5.88814e-53 3.56863e-53 2.12763e-53 1.24795e-53 7.20182e-54 4.0895e-54 2.28521e-54 1.25676e-54 6.80294e-55 3.62501e-55 1.90169e-55 9.82292e-56 4.99648e-56 2.50302e-56 1.23508e-56 6.00362e-57 2.87524e-57 1.35685e-57 6.31022e-58 2.89247e-58 1.30696e-58 5.82206e-59 2.55725e-59 1.10766e-59 4.73186e-60 1.9939e-60 8.28806e-61 3.39786e-61 1.37126e-61 5.37245e-62 1.84248e-62 0 
0 1.20834e-84 5.24272e-84 2.1379e-83 8.61447e-83 3.43929e-82 1.36066e-81 5.33387e-81 2.07165e-80 7.97153e-80 3.03867e-79 1.14739e-78 4.2913e-78 1.58959e-77 5.83128e-77 2.11832e-76 7.61964e-76 2.71365e-75 9.56788e-75 3.33951e-74 1.15376e-73 3.94529e-73 1.33516e-72 4.47134e-72 1.48168e-71 4.85786e-71 1.57567e-70 5.05563e-70 1.60447e-69 5.0361e-69 1.56321e-68 4.79797e-68 1.45603e-67 4.36826e-67 1.29547e-66 3.79737e-66 1.10008e-65 3.14923e-65 8.90786e-65 2.48933e-64 6.87198e-64 1.87379e-63 5.04598e-63 1.34186e-62 3.52328e-62 9.13307e-62 2.337e-61 5.90229e-61 1.4711e-60 3.61802e-60 8.77903e-60 2.10142e-59 4.96146e-59 1.15526e-58 2.65253e-58 6.00474e-58 1.34004e-57 2.94763e-57 6.38992e-57 1.36497e-56 2.87273e-56 5.95589e-56 1.21623e-55 2.44591e-55 4.84347e-55 9.4428e-55 1.81222e-54 3.42315e-54 6.3633e-54 1.16391e-53 2.09449e-53 3.70764e-53 6.45535e-53 1.10532e-52 1.86101e-52 3.08068e-52 5.01342e-52 8.01973e-52 1.2609e-51 1.94829e-51 2.95829e-51 4.41377e-51 6.47039e-51 9.31923e-51 1.31868e-50 1.83317e-50 2.50359e-50 3.35914e-50 4.42806e-50 5.73519e-50 7.29915e-50 9.12937e-50 1.12235e-49 1.35651e-49 1.61229e-49 1.88508e-49 2.16897e-49 2.45711e-49 2.74212e-49 3.01672e-49 3.27428e-49 3.50939e-49 3.71828e-49 3.89916e-49 4.05227e-49 4.17974e-49 4.28531e-49 4.37379e-49 4.45055e-49 4.52086e-49 4.58941e-49 4.65985e-49 4.73455e-49 4.81451e-49 4.89943e-49 4.988e-49 5.0782e-49 5.16772e-49 5.2543e-49 5.3361e-49 5.41186e-49 5.48105e-49 5.54381e-49 5.60085e-49 5.65322e-49 5.70211e-49 5.74856e-49 5.79328e-49 5.83649e-49 5.87779e-49 5.91623e-49 5.95026e-49 5.97793e-49 5.99703e-49 6.00529e-49 6.00054e-49 5.98096e-49 5.94524e-49 5.89271e-49 5.82342e-49 5.73823e-49 5.63875e-49 5.52735e-49 5.40697e-49 5.28106e-49 5.15336e-49 5.02771e-49 4.90787e-49 4.79728e-49 4.69894e-49 4.61519e-49 4.54761e-49 4.49697e-49 4.46321e-49 4.44546e-49 4.44221e-49 4.45143e-49 4.4708e-49 4.49789e-49 4.53039e-49 4.56627e-49 4.60389e-49 4.64203e-49 4.67992e-49 4.71709e-49 4.75336e-49 4.78864e-49 4.82291e-49 4.85608e-49 4.88807e-49 4.91876e-49 4.94816e-49 4.97644e-49 5.00408e-49 5.03188e-49 5.061e-49 5.09283e-49 5.12888e-49 5.17051e-49 5.2187e-49 5.27372e-49 5.33498e-49 5.40079e-49 5.4683e-49 5.53359e-49 5.59178e-49 5.63732e-49 5.66434e-49 5.66701e-49 5.63994e-49 5.57857e-49 5.47948e-49 5.34062e-49 5.16149e-49 4.9432e-49 4.68845e-49 4.40143e-49 4.0876e-49 3.75345e-49 3.40618e-49 3.05334e-49 2.70243e-49 2.36057e-49 2.03415e-49 1.72856e-49 1.44796e-49 1.19525e-49 9.7196e-50 7.78403e-50 6.13782e-50 4.76407e-50 3.63923e-50 2.73548e-50 2.02295e-50 1.47167e-50 1.05309e-50 7.4118e-51 5.13044e-51 3.49256e-51 2.33822e-51 1.53949e-51 9.96835e-52 6.34802e-52 3.97593e-52 2.44933e-52 1.48419e-52 8.84702e-53 5.18805e-53 2.99329e-53 1.69931e-53 9.49331e-54 5.21951e-54 2.8246e-54 1.50469e-54 7.8914e-55 4.075e-55 2.07215e-55 1.03774e-55 5.11902e-56 2.48754e-56 1.19095e-56 5.61844e-57 2.61211e-57 1.19695e-57 5.4067e-58 2.40775e-58 1.05723e-58 4.57791e-59 1.95505e-59 8.23555e-60 3.42224e-60 1.40259e-60 5.65868e-61 2.2164e-61 7.59948e-62 0 
0 4.86954e-84 2.11294e-83 8.61697e-83 3.47244e-82 1.38649e-81 5.48579e-81 2.15069e-80 8.35409e-80 3.21494e-79 1.22565e-78 4.62856e-78 1.73133e-77 6.41407e-77 2.35328e-76 8.54996e-76 3.07589e-75 1.09561e-74 3.86357e-74 1.34874e-73 4.66052e-73 1.59395e-72 5.3952e-72 1.80715e-71 5.9896e-71 1.96415e-70 6.37213e-70 2.04497e-69 6.49142e-69 2.03798e-68 6.32737e-68 1.94253e-67 5.89638e-67 1.76943e-66 5.24888e-66 1.53899e-65 4.45959e-65 1.27701e-64 3.61316e-64 1.01e-63 2.78902e-63 7.60714e-63 2.04918e-62 5.45103e-62 1.43173e-61 3.71255e-61 9.50297e-61 2.40086e-60 5.98605e-60 1.47272e-59 3.57479e-59 8.55998e-59 2.02176e-58 4.70933e-58 1.08169e-57 2.44963e-57 5.46878e-57 1.2034e-56 2.60977e-56 5.57697e-56 1.17419e-55 2.43534e-55 4.97507e-55 1.00091e-54 1.9828e-54 3.86715e-54 7.42453e-54 1.40297e-53 2.60898e-53 4.77385e-53 8.59382e-53 1.52181e-52 2.65055e-52 4.53998e-52 7.64643e-52 1.26619e-51 2.06119e-51 3.29817e-51 5.18699e-51 8.01685e-51 1.21759e-50 1.81706e-50 2.66429e-50 3.83808e-50 5.43187e-50 7.55224e-50 1.03155e-49 1.3842e-49 1.82482e-49 2.36361e-49 3.00823e-49 3.76253e-49 4.62545e-49 5.59019e-49 6.64373e-49 7.76697e-49 8.93548e-49 1.01209e-48 1.12927e-48 1.2421e-48 1.34783e-48 1.44425e-48 1.52979e-48 1.60375e-48 1.66621e-48 1.71809e-48 1.76092e-48 1.79671e-48 1.82767e-48 1.85599e-48 1.88359e-48 1.91199e-48 1.94217e-48 1.97454e-48 2.00898e-48 2.04494e-48 2.08161e-48 2.11802e-48 2.15326e-48 2.18656e-48 2.2174e-48 2.24556e-48 2.27111e-48 2.29432e-48 2.31563e-48 2.33553e-48 2.35444e-48 2.37265e-48 2.39026e-48 2.4071e-48 2.42278e-48 2.43668e-48 2.44799e-48 2.45582e-48 2.45922e-48 2.45733e-48 2.44939e-48 2.43486e-48 2.41347e-48 2.38525e-48 2.35053e-48 2.30998e-48 2.26457e-48 2.21549e-48 2.16414e-48 2.11207e-48 2.06083e-48 2.01197e-48 1.96688e-48 1.92679e-48 1.89265e-48 1.86512e-48 1.84451e-48 1.83077e-48 1.82358e-48 1.82229e-48 1.82608e-48 1.83401e-48 1.84508e-48 1.85834e-48 1.87297e-48 1.88829e-48 1.90382e-48 1.91924e-48 1.93436e-48 1.94911e-48 1.96346e-48 1.9774e-48 1.9909e-48 2.00392e-48 2.01641e-48 2.02837e-48 2.03988e-48 2.05113e-48 2.06244e-48 2.07428e-48 2.08723e-48 2.1019e-48 2.11886e-48 2.13849e-48 2.16093e-48 2.18594e-48 2.21282e-48 2.24041e-48 2.26713e-48 2.29097e-48 2.30967e-48 2.32083e-48 2.32207e-48 2.31117e-48 2.28628e-48 2.24597e-48 2.18939e-48 2.11634e-48 2.02725e-48 1.9232e-48 1.80589e-48 1.67755e-48 1.54082e-48 1.39864e-48 1.2541e-48 1.11028e-48 9.70089e-49 8.36166e-49 7.10726e-49 5.95498e-49 4.91675e-49 3.99905e-49 3.20327e-49 2.52623e-49 1.96109e-49 1.49823e-49 1.12627e-49 8.32956e-50 6.0599e-50 4.33641e-50 3.05198e-50 2.11251e-50 1.43802e-50 9.62653e-51 6.33748e-51 4.10308e-51 2.61254e-51 1.63604e-51 1.00768e-51 6.1049e-52 3.63826e-52 2.13305e-52 1.23039e-52 6.9832e-53 3.90017e-53 2.14376e-53 1.15979e-53 6.17648e-54 3.23829e-54 1.67169e-54 8.4979e-55 4.25443e-55 2.09797e-55 1.01915e-55 4.87776e-56 2.30037e-56 1.06913e-56 4.89747e-57 2.21147e-57 9.84502e-58 4.32148e-58 1.87062e-58 7.98609e-59 3.36301e-59 1.39703e-59 5.72386e-60 2.30854e-60 9.03951e-61 3.09871e-61 0 
0 1.94439e-83 8.43755e-83 3.4413e-82 1.3869e-81 5.5382e-81 2.19148e-80 8.59255e-80 3.33805e-79 1.28475e-78 4.89852e-78 1.85012e-77 6.92137e-77 2.56452e-76 9.41041e-76 3.41951e-75 1.23038e-74 4.38324e-74 1.54596e-73 5.39773e-73 1.86551e-72 6.38141e-72 2.16039e-71 7.23777e-71 2.39936e-70 7.86978e-70 2.55368e-69 8.19719e-69 2.60265e-68 8.17294e-68 2.53809e-67 7.79395e-67 2.36639e-66 7.10311e-66 2.10764e-65 6.18138e-65 1.79171e-64 5.13206e-64 1.45249e-63 4.06143e-63 1.12187e-62 3.06089e-62 8.24796e-62 2.19476e-61 5.76651e-61 1.4958e-60 3.83011e-60 9.67993e-60 2.41435e-59 5.94208e-59 1.44288e-58 3.45632e-58 8.16648e-58 1.90297e-57 4.37265e-57 9.90632e-57 2.21245e-56 4.87044e-56 1.05665e-55 2.25894e-55 4.75796e-55 9.87231e-55 2.0176e-54 4.06073e-54 8.04758e-54 1.57019e-53 3.01582e-53 5.7011e-53 1.0606e-52 1.94141e-52 3.49623e-52 6.19353e-52 1.07913e-51 1.84903e-51 3.1153e-51 5.16041e-51 8.4032e-51 1.34503e-50 2.11594e-50 3.27124e-50 4.9696e-50 7.41813e-50 1.08794e-49 1.56756e-49 2.21889e-49 3.08552e-49 4.21503e-49 5.6566e-49 7.45778e-49 9.66028e-49 1.22952e-48 1.53781e-48 1.89045e-48 2.28461e-48 2.71494e-48 3.17358e-48 3.65051e-48 4.13409e-48 4.61186e-48 5.07151e-48 5.50186e-48 5.89382e-48 6.24113e-48 6.54083e-48 6.79342e-48 7.00262e-48 7.17479e-48 7.31816e-48 7.44181e-48 7.55471e-48 7.66478e-48 7.7782e-48 7.89898e-48 8.0288e-48 8.16718e-48 8.31193e-48 8.45966e-48 8.60647e-48 8.74861e-48 8.88296e-48 9.00742e-48 9.12106e-48 9.22412e-48 9.31776e-48 9.40373e-48 9.48399e-48 9.5603e-48 9.63383e-48 9.70495e-48 9.77303e-48 9.83647e-48 9.89273e-48 9.93858e-48 9.97037e-48 9.9843e-48 9.97681e-48 9.94489e-48 9.88634e-48 9.80002e-48 9.68605e-48 9.5458e-48 9.38196e-48 9.1984e-48 9.00001e-48 8.79247e-48 8.58196e-48 8.37484e-48 8.1773e-48 7.99506e-48 7.83305e-48 7.69514e-48 7.58395e-48 7.50074e-48 7.44538e-48 7.41644e-48 7.41141e-48 7.4269e-48 7.45906e-48 7.50387e-48 7.55751e-48 7.61664e-48 7.67853e-48 7.74121e-48 7.80339e-48 7.86437e-48 7.92384e-48 7.98171e-48 8.03791e-48 8.09235e-48 8.14485e-48 8.19525e-48 8.24351e-48 8.28994e-48 8.33529e-48 8.38089e-48 8.42863e-48 8.48086e-48 8.54005e-48 8.6085e-48 8.68784e-48 8.77858e-48 8.87976e-48 8.98861e-48 9.10047e-48 9.20886e-48 9.30573e-48 9.38191e-48 9.42765e-48 9.43329e-48 9.38988e-48 9.2898e-48 9.1273e-48 8.89887e-48 8.60357e-48 8.24312e-48 7.82185e-48 7.34659e-48 6.82628e-48 6.27163e-48 5.69453e-48 5.10749e-48 4.52303e-48 3.95304e-48 3.40825e-48 2.89771e-48 2.42851e-48 2.00557e-48 1.63159e-48 1.30716e-48 1.03105e-48 8.00514e-49 6.11648e-49 4.59838e-49 3.40105e-49 2.47442e-49 1.7707e-49 1.24621e-49 8.62565e-50 5.87124e-50 3.93006e-50 2.58701e-50 1.67469e-50 1.06616e-50 6.67541e-51 4.11078e-51 2.48995e-51 1.48357e-51 8.69585e-52 5.01466e-52 2.84537e-52 1.58872e-52 8.72996e-53 4.72155e-53 2.5137e-53 1.3175e-53 6.79909e-54 3.45514e-54 1.72922e-54 8.52435e-55 4.13956e-55 1.98055e-55 9.33716e-56 4.33807e-56 1.9865e-56 8.96701e-57 3.99055e-57 1.75105e-57 7.57712e-58 3.23373e-58 1.3613e-58 5.65308e-59 2.31539e-59 9.3354e-60 3.65434e-60 1.2524e-60 0 
0 7.6934e-83 3.33876e-82 1.36186e-81 5.48904e-81 2.19213e-80 8.67524e-80 3.40186e-79 1.32172e-78 5.08765e-78 1.94008e-77 7.32847e-77 2.74199e-76 1.01611e-75 3.72915e-75 1.35529e-74 4.87728e-74 1.73783e-73 6.13035e-73 2.1408e-72 7.40016e-72 2.53189e-71 8.57325e-71 2.87281e-70 9.52551e-70 3.125e-69 1.01426e-68 3.25648e-68 1.0342e-67 3.2484e-67 1.00904e-66 3.09934e-66 9.41268e-66 2.82613e-65 8.38806e-65 2.46078e-64 7.13478e-64 2.04426e-63 5.78747e-63 1.61879e-62 4.47292e-62 1.22079e-61 3.29066e-61 8.75932e-61 2.30222e-60 5.97394e-60 1.53022e-59 3.86879e-59 9.65304e-59 2.37666e-58 5.77329e-58 1.38349e-57 3.27016e-57 7.62322e-57 1.75237e-56 3.97165e-56 8.87383e-56 1.95427e-55 4.24161e-55 9.0716e-55 1.91154e-54 3.96793e-54 8.11266e-54 1.63349e-53 3.23862e-53 6.32165e-53 1.21468e-52 2.29718e-52 4.27528e-52 7.82902e-52 1.41047e-51 2.4996e-51 4.35682e-51 7.46799e-51 1.25868e-50 2.0857e-50 3.39749e-50 5.43984e-50 8.5603e-50 1.3238e-49 2.01164e-49 3.00353e-49 4.40596e-49 6.34967e-49 8.98967e-49 1.25028e-48 1.7082e-48 2.29266e-48 3.02294e-48 3.91592e-48 4.98415e-48 6.23387e-48 7.66311e-48 9.2603e-48 1.10035e-47 1.28608e-47 1.47914e-47 1.67477e-47 1.86793e-47 2.05362e-47 2.2273e-47 2.3853e-47 2.52509e-47 2.64548e-47 2.74672e-47 2.83031e-47 2.89888e-47 2.95576e-47 3.00467e-47 3.04924e-47 3.0927e-47 3.13756e-47 3.18544e-47 3.23703e-47 3.29214e-47 3.34987e-47 3.40887e-47 3.46755e-47 3.52439e-47 3.57812e-47 3.62791e-47 3.67337e-47 3.71459e-47 3.75203e-47 3.78641e-47 3.81851e-47 3.84903e-47 3.87846e-47 3.90694e-47 3.93423e-47 3.95967e-47 3.98225e-47 4.00068e-47 4.01348e-47 4.01914e-47 4.01621e-47 4.00349e-47 3.98009e-47 3.94556e-47 3.89993e-47 3.84376e-47 3.77812e-47 3.70457e-47 3.62507e-47 3.54189e-47 3.45752e-47 3.37451e-47 3.29534e-47 3.22231e-47 3.1574e-47 3.10216e-47 3.05764e-47 3.02435e-47 3.00223e-47 2.9907e-47 2.98875e-47 2.99502e-47 3.00795e-47 3.02595e-47 3.04746e-47 3.07115e-47 3.09593e-47 3.12101e-47 3.14587e-47 3.17025e-47 3.19402e-47 3.21714e-47 3.23961e-47 3.26137e-47 3.28237e-47 3.30253e-47 3.32183e-47 3.3404e-47 3.35853e-47 3.37675e-47 3.39584e-47 3.41671e-47 3.44039e-47 3.46779e-47 3.49957e-47 3.53595e-47 3.57654e-47 3.62025e-47 3.66521e-47 3.70882e-47 3.74786e-47 3.77864e-47 3.79724e-47 3.79979e-47 3.78267e-47 3.74281e-47 3.67788e-47 3.58646e-47 3.46813e-47 3.32357e-47 3.15448e-47 2.96358e-47 2.75445e-47 2.53137e-47 2.29911e-47 2.06272e-47 1.82722e-47 1.59742e-47 1.37766e-47 1.17161e-47 9.8216e-48 8.11304e-48 6.60161e-48 5.28998e-48 4.17333e-48 3.24066e-48 2.47639e-48 1.86193e-48 1.37721e-48 1.00202e-48 7.17058e-49 5.04655e-49 3.49283e-49 2.37731e-49 1.59117e-49 1.04728e-49 6.77863e-50 4.31478e-50 2.70107e-50 1.66301e-50 1.00709e-50 5.99904e-51 3.51542e-51 2.02671e-51 1.14965e-51 6.41723e-52 3.52519e-52 1.90598e-52 1.0144e-52 5.315e-53 2.74193e-53 1.39291e-53 6.96878e-54 3.43412e-54 1.66707e-54 7.9732e-55 3.75755e-55 1.74514e-55 7.98852e-56 3.60471e-56 1.60361e-56 7.03413e-57 3.04271e-57 1.2981e-57 5.46266e-58 2.2677e-58 9.28487e-59 3.74231e-59 1.46447e-59 5.01771e-60 0 
0 3.01622e-82 1.30908e-81 5.34019e-81 2.15261e-80 8.59771e-80 3.40289e-79 1.33455e-78 5.18572e-78 1.99638e-77 7.61385e-77 2.87646e-76 1.0764e-75 3.98948e-75 1.46437e-74 5.32285e-74 1.91585e-73 6.82757e-73 2.40892e-72 8.41383e-72 2.90899e-71 9.95478e-71 3.37149e-70 1.12999e-69 3.74758e-69 1.22973e-68 3.99219e-68 1.28207e-67 4.07261e-67 1.27953e-66 3.97556e-66 1.22145e-65 3.71056e-65 1.1144e-64 3.30852e-64 9.70898e-64 2.81587e-63 8.07051e-63 2.28556e-62 6.39491e-62 1.76758e-61 4.82585e-61 1.30127e-60 3.46503e-60 9.11045e-60 2.36489e-59 6.05993e-59 1.53268e-58 3.82568e-58 9.42282e-58 2.28987e-57 5.48958e-57 1.2981e-56 3.02731e-56 6.96188e-56 1.57854e-55 3.52841e-55 7.77392e-55 1.688e-54 3.61174e-54 7.61386e-54 1.58116e-53 3.23419e-53 6.51493e-53 1.29224e-52 2.5235e-52 4.85091e-52 9.17789e-52 1.70882e-51 3.13056e-51 5.6423e-51 1.00032e-50 1.74426e-50 2.99098e-50 5.043e-50 8.35954e-50 1.3622e-49 2.1818e-49 3.43444e-49 5.31277e-49 8.0755e-49 1.20605e-48 1.76961e-48 2.55084e-48 3.6121e-48 5.02453e-48 6.86574e-48 9.21593e-48 1.21525e-47 1.57432e-47 2.00384e-47 2.50627e-47 3.08077e-47 3.72263e-47 4.42298e-47 5.16887e-47 5.9438e-47 6.72866e-47 7.50306e-47 8.24687e-47 8.94187e-47 9.57329e-47 1.0131e-46 1.06105e-46 1.10126e-46 1.13435e-46 1.1614e-46 1.18375e-46 1.20291e-46 1.22033e-46 1.23731e-46 1.25488e-46 1.27368e-46 1.29399e-46 1.31574e-46 1.33856e-46 1.36191e-46 1.38516e-46 1.40769e-46 1.429e-46 1.44874e-46 1.46676e-46 1.4831e-46 1.49795e-46 1.51157e-46 1.5243e-46 1.5364e-46 1.54808e-46 1.55939e-46 1.57023e-46 1.58035e-46 1.58933e-46 1.59668e-46 1.60179e-46 1.60407e-46 1.60293e-46 1.59791e-46 1.58864e-46 1.57495e-46 1.55684e-46 1.53453e-46 1.50847e-46 1.47925e-46 1.44766e-46 1.41461e-46 1.38109e-46 1.3481e-46 1.31665e-46 1.28764e-46 1.26186e-46 1.23992e-46 1.22225e-46 1.20904e-46 1.20028e-46 1.19573e-46 1.19498e-46 1.1975e-46 1.20266e-46 1.20982e-46 1.21837e-46 1.22778e-46 1.23762e-46 1.24756e-46 1.25742e-46 1.26708e-46 1.2765e-46 1.28566e-46 1.29456e-46 1.30318e-46 1.31151e-46 1.3195e-46 1.32715e-46 1.33451e-46 1.3417e-46 1.34892e-46 1.35648e-46 1.36475e-46 1.37414e-46 1.38501e-46 1.39763e-46 1.41209e-46 1.42824e-46 1.44565e-46 1.46357e-46 1.48097e-46 1.49657e-46 1.5089e-46 1.51641e-46 1.51754e-46 1.51086e-46 1.49513e-46 1.46943e-46 1.43316e-46 1.38617e-46 1.3287e-46 1.26142e-46 1.1854e-46 1.10207e-46 1.01312e-46 9.20445e-47 8.2606e-47 7.31976e-47 6.40115e-47 5.52216e-47 4.69757e-47 3.93901e-47 3.25459e-47 2.64888e-47 2.12302e-47 1.67517e-47 1.301e-47 9.94296e-48 7.47655e-48 5.53054e-48 4.02404e-48 2.87967e-48 2.02663e-48 1.40261e-48 9.54588e-49 6.38855e-49 4.20435e-49 2.7209e-49 1.73163e-49 1.0838e-49 6.67142e-50 4.03915e-50 2.40546e-50 1.40922e-50 8.12216e-51 4.60596e-51 2.57021e-51 1.41145e-51 7.6289e-52 4.05888e-52 2.12594e-52 1.09636e-52 5.56754e-53 2.78446e-53 1.37164e-53 6.65611e-54 3.18227e-54 1.49916e-54 6.96003e-55 3.18482e-55 1.43657e-55 6.38842e-56 2.8012e-56 1.21125e-56 5.16562e-57 2.173e-57 9.0175e-58 3.69081e-58 1.48708e-58 5.81747e-59 1.99273e-59 0 
0 1.17162e-81 5.08547e-81 2.07475e-80 8.36414e-80 3.34108e-79 1.32252e-78 5.18731e-78 2.01592e-77 7.76188e-77 2.96066e-76 1.11868e-75 4.18683e-75 1.55201e-74 5.69772e-74 2.07142e-73 7.45693e-73 2.65793e-72 9.37951e-72 3.27669e-71 1.13311e-70 3.87836e-70 1.31381e-69 4.40432e-69 1.46101e-68 4.79527e-68 1.55711e-67 5.00181e-67 1.58927e-66 4.99445e-66 1.55222e-65 4.77036e-65 1.44956e-64 4.35475e-64 1.29326e-63 3.79628e-63 1.10137e-62 3.15762e-62 8.94526e-62 2.50369e-61 6.92268e-61 1.89069e-60 5.1e-60 1.35853e-59 3.57324e-59 9.27895e-59 2.3786e-58 6.01835e-58 1.50282e-57 3.70301e-57 9.00251e-57 2.15911e-56 5.10771e-56 1.19169e-55 2.7417e-55 6.21924e-55 1.39077e-54 3.06556e-54 6.65943e-54 1.42553e-53 3.00651e-53 6.24642e-53 1.27826e-52 2.57608e-52 5.112e-52 9.98728e-52 1.92072e-51 3.63561e-51 6.77209e-51 1.24119e-50 2.23799e-50 3.96941e-50 6.92433e-50 1.18783e-49 2.00355e-49 3.32244e-49 5.41595e-49 8.67759e-49 1.36642e-48 2.11439e-48 3.21486e-48 4.8026e-48 7.04852e-48 1.01625e-47 1.43934e-47 2.00252e-47 2.73673e-47 3.67396e-47 4.84507e-47 6.27701e-47 7.98975e-47 9.99297e-47 1.22831e-46 1.48412e-46 1.76315e-46 2.0602e-46 2.36867e-46 2.6809e-46 2.98875e-46 3.28417e-46 3.5599e-46 3.81006e-46 4.03067e-46 4.21988e-46 4.37814e-46 4.50798e-46 4.61366e-46 4.70062e-46 4.77485e-46 4.84223e-46 4.90796e-46 4.97608e-46 5.04919e-46 5.12841e-46 5.21344e-46 5.30284e-46 5.39444e-46 5.48571e-46 5.57423e-46 5.65796e-46 5.73555e-46 5.80639e-46 5.87061e-46 5.92892e-46 5.98246e-46 6.03247e-46 6.08005e-46 6.12598e-46 6.17048e-46 6.21318e-46 6.25306e-46 6.28852e-46 6.31753e-46 6.33778e-46 6.34686e-46 6.34253e-46 6.32287e-46 6.28647e-46 6.23263e-46 6.16138e-46 6.0736e-46 5.97097e-46 5.85591e-46 5.73151e-46 5.60134e-46 5.46929e-46 5.33937e-46 5.21547e-46 5.10122e-46 4.9997e-46 4.91335e-46 4.84383e-46 4.7919e-46 4.75749e-46 4.73967e-46 4.73684e-46 4.74685e-46 4.76726e-46 4.79553e-46 4.82925e-46 4.8663e-46 4.90499e-46 4.94409e-46 4.98282e-46 5.02076e-46 5.05773e-46 5.09371e-46 5.12867e-46 5.16256e-46 5.19526e-46 5.22666e-46 5.25674e-46 5.28566e-46 5.31389e-46 5.34225e-46 5.37194e-46 5.40444e-46 5.44134e-46 5.48411e-46 5.5338e-46 5.59078e-46 5.65447e-46 5.72318e-46 5.79399e-46 5.86284e-46 5.92467e-46 5.9737e-46 6.00377e-46 6.00875e-46 5.98294e-46 5.92147e-46 5.82062e-46 5.67806e-46 5.49307e-46 5.2666e-46 5.00126e-46 4.70122e-46 4.37204e-46 4.02041e-46 3.65382e-46 3.2802e-46 2.90754e-46 2.54346e-46 2.19487e-46 1.86768e-46 1.56652e-46 1.29466e-46 1.05396e-46 8.44904e-47 6.66796e-47 5.17938e-47 3.95888e-47 2.97714e-47 2.2024e-47 1.60253e-47 1.14681e-47 8.07075e-48 5.58541e-48 3.80101e-48 2.54355e-48 1.67371e-48 1.08299e-48 6.89116e-49 4.3122e-49 2.65382e-49 1.60634e-49 9.56388e-50 5.60138e-50 3.22746e-50 1.82969e-50 1.02068e-50 5.60328e-51 3.02754e-51 1.61021e-51 8.43086e-52 4.34625e-52 2.2063e-52 1.10301e-52 5.43143e-53 2.63468e-53 1.25915e-53 5.92951e-54 2.75178e-54 1.25869e-54 5.67534e-55 2.52285e-55 1.10579e-55 4.77968e-56 2.03761e-56 8.56832e-57 3.55434e-57 1.45424e-57 5.85722e-58 2.29058e-58 7.84412e-59 0 
0 4.50881e-81 1.95724e-80 7.98592e-80 3.21981e-79 1.28631e-78 5.09233e-78 1.99762e-77 7.76429e-77 2.98989e-76 1.14061e-75 4.31044e-75 1.6135e-74 5.98206e-74 2.19649e-73 7.98677e-73 2.87569e-72 1.02519e-71 3.61849e-71 1.26435e-70 4.37315e-70 1.49715e-69 5.07274e-69 1.70094e-68 5.64371e-68 1.8528e-67 6.01786e-67 1.93358e-66 6.14534e-66 1.93176e-65 6.00537e-65 1.84612e-64 5.61143e-64 1.68628e-63 5.00942e-63 1.47095e-62 4.26886e-62 1.22429e-61 3.46948e-61 9.7141e-61 2.68689e-60 7.34098e-60 1.9809e-59 5.27868e-59 1.38895e-58 3.60823e-58 9.25318e-58 2.34219e-57 5.85103e-57 1.44232e-56 3.50798e-56 8.41695e-56 1.99204e-55 4.64971e-55 1.07023e-54 2.42882e-54 5.43389e-54 1.1983e-53 2.60434e-53 5.5775e-53 1.17687e-52 2.44627e-52 5.00837e-52 1.00982e-51 2.00484e-51 3.91869e-51 7.53982e-51 1.42783e-50 2.66085e-50 4.87903e-50 8.80135e-50 1.56173e-49 2.72549e-49 4.6774e-49 7.89273e-49 1.30935e-48 2.1352e-48 3.42232e-48 5.39083e-48 8.34447e-48 1.26914e-47 1.89647e-47 2.78407e-47 4.015e-47 5.68774e-47 7.91463e-47 1.08181e-46 1.45247e-46 1.91564e-46 2.48194e-46 3.15924e-46 3.95131e-46 4.85666e-46 5.86765e-46 6.97004e-46 8.14315e-46 9.36071e-46 1.05923e-45 1.18057e-45 1.2969e-45 1.40536e-45 1.50361e-45 1.59009e-45 1.6641e-45 1.72583e-45 1.77628e-45 1.81717e-45 1.85066e-45 1.87914e-45 1.90492e-45 1.93009e-45 1.95623e-45 1.98438e-45 2.01499e-45 2.04792e-45 2.08262e-45 2.11823e-45 2.15375e-45 2.18821e-45 2.22083e-45 2.25105e-45 2.27865e-45 2.30366e-45 2.32637e-45 2.34722e-45 2.36669e-45 2.38523e-45 2.40313e-45 2.4205e-45 2.43717e-45 2.45275e-45 2.46662e-45 2.47799e-45 2.48593e-45 2.48953e-45 2.48789e-45 2.48026e-45 2.4661e-45 2.44512e-45 2.41734e-45 2.38309e-45 2.34303e-45 2.29812e-45 2.24955e-45 2.19873e-45 2.14717e-45 2.09644e-45 2.04807e-45 2.00346e-45 1.96384e-45 1.93015e-45 1.90303e-45 1.8828e-45 1.86941e-45 1.8625e-45 1.86144e-45 1.86539e-45 1.87339e-45 1.88445e-45 1.89762e-45 1.91208e-45 1.92717e-45 1.94241e-45 1.95749e-45 1.97226e-45 1.98665e-45 2.00065e-45 2.01426e-45 2.02745e-45 2.04019e-45 2.05242e-45 2.06414e-45 2.0754e-45 2.08639e-45 2.09743e-45 2.10899e-45 2.12164e-45 2.13602e-45 2.15269e-45 2.17209e-45 2.19435e-45 2.21925e-45 2.24614e-45 2.27389e-45 2.3009e-45 2.3252e-45 2.34453e-45 2.35648e-45 2.35864e-45 2.34878e-45 2.32499e-45 2.28579e-45 2.23025e-45 2.15809e-45 2.06964e-45 1.96592e-45 1.84852e-45 1.71963e-45 1.58184e-45 1.43809e-45 1.29147e-45 1.14513e-45 1.00207e-45 8.65012e-46 7.36287e-46 6.17741e-46 5.10674e-46 4.1583e-46 3.33422e-46 2.63186e-46 2.04464e-46 1.56303e-46 1.17554e-46 8.69688e-47 6.32835e-47 4.52873e-47 3.18706e-47 2.2055e-47 1.50077e-47 1.00417e-47 6.60674e-48 4.27427e-48 2.71924e-48 1.70123e-48 1.04673e-48 6.33419e-49 3.77024e-49 2.20752e-49 1.27157e-49 7.20636e-50 4.01867e-50 2.2054e-50 1.19119e-50 6.33306e-51 3.31468e-51 1.70812e-51 8.66766e-52 4.33158e-52 2.13211e-52 1.03383e-52 4.93883e-53 2.32483e-53 1.07848e-53 4.93107e-54 2.22249e-54 9.87563e-55 4.32688e-55 1.8695e-55 7.96669e-56 3.34875e-56 1.3886e-56 5.67921e-57 2.28656e-57 8.93892e-58 3.0603e-58 0 