# vtk DataFile Version 3.0
Gray-Scott Simulation Output
ASCII
DATASET STRUCTURED_POINTS
DIMENSIONS 256 256 1
SPACING 1.0 1.0 1.0
ORIGIN 0 0 0
POINT_DATA 65536
SCALARS u double
LOOKUP_TABLE default
0 0 0 0 0 0 0 0 0 0 0 0 0 0 0 0 0 0 0 0 0 0 0 0 0 0 0 0 0 0 0 0 0 0 0 0 0 0 0 0 0 0 0 0 0 0 0 0 0 0 0 0 0 0 0 0 0 0 0 0 0 0 0 0 0 0 0 0 0 0 0 0 0 0 0 0 0 0 0 0 0 0 0 0 0 0 0 0 0 0 0 0 0 0 0 0 0 0 0 0 0 0 0 0 0 0 0 0 0 0 0 0 0 0 0 0 0 0 0 0 0 0 0 0 0 0 0 0 0 0 0 0 0 0 0 0 0 0 0 0 0 0 0 0 0 0 0 0 0 0 0 0 0 0 0 0 0 0 0 0 0 0 0 0 0 0 0 0 0 0 0 0 0 0 0 0 0 0 0 0 0 0 0 0 0 0 0 0 0 0 0 0 0 0 0 0 0 0 0 0 0 0 0 0 0 0 0 0 0 0 0 0 0 0 0 0 0 0 0 0 0 0 0 0 0 0 0 0 0 0 0 0 0 0 0 0 0 0 0 0 0 0 0 0 0 0 0 0 0 0 0 0 0 0 0 0 
0 1.08385e-76 3.81625e-76 1.22792e-75 3.8903e-75 1.22161e-74 3.80425e-74 1.17487e-73 3.59815e-73 1.09272e-72 3.29044e-72 9.82401e-72 2.90796e-71 8.5335e-71 2.48244e-70 7.15839e-70 2.04603e-69 5.79615e-69 1.62732e-68 4.52774e-68 1.24835e-67 3.41047e-67 9.23168e-67 2.47576e-66 6.57762e-66 1.73113e-65 4.51296e-65 1.16529e-64 2.98e-64 7.54701e-64 1.89269e-63 4.7e-63 1.15557e-62 2.81283e-62 6.77805e-62 1.61676e-61 3.81709e-61 8.9193e-61 2.06255e-60 4.71977e-60 1.06867e-59 2.39404e-59 5.30583e-59 1.16324e-58 2.52258e-58 5.41054e-58 1.14767e-57 2.40736e-57 4.99307e-57 1.02391e-56 2.07578e-56 4.15995e-56 8.24032e-56 1.61327e-55 3.12131e-55 5.96753e-55 1.1273e-54 2.10392e-54 3.87904e-54 7.06455e-54 1.27078e-53 2.25755e-53 3.96048e-53 6.86062e-53 1.17339e-52 1.98128e-52 3.30245e-52 5.43343e-52 8.82312e-52 1.41398e-51 2.23617e-51 3.48956e-51 5.37288e-51 8.16175e-51 1.22312e-50 1.80815e-50 2.63668e-50 3.79238e-50 5.37993e-50 7.5272e-50 1.03865e-49 1.41341e-49 1.89684e-49 2.51042e-49 3.27658e-49 4.21757e-49 5.35409e-49 6.70365e-49 8.27884e-49 1.00855e-48 1.21213e-48 1.43741e-48 1.68216e-48 1.94313e-48 2.21609e-48 2.49604e-48 2.77744e-48 3.05448e-48 3.32148e-48 3.5732e-48 3.80519e-48 4.01408e-48 4.19776e-48 4.35544e-48 4.48771e-48 4.59632e-48 4.68405e-48 4.75434e-48 4.81106e-48 4.8581e-48 4.89913e-48 4.93732e-48 4.97521e-48 5.0146e-48 5.05653e-48 5.10141e-48 5.14904e-48 5.19886e-48 5.25005e-48 5.30169e-48 5.35294e-48 5.40303e-48 5.45142e-48 5.4977e-48 5.54162e-48 5.58303e-48 5.62178e-48 5.65767e-48 5.69036e-48 5.71938e-48 5.74408e-48 5.76361e-48 5.77704e-48 5.78334e-48 5.7815e-48 5.77061e-48 5.74993e-48 5.71902e-48 5.67773e-48 5.62634e-48 5.56549e-48 5.49626e-48 5.42009e-48 5.33874e-48 5.25421e-48 5.16866e-48 5.08429e-48 5.00326e-48 4.92753e-48 4.85884e-48 4.79857e-48 4.74771e-48 4.70685e-48 4.67615e-48 4.65535e-48 4.64389e-48 4.6409e-48 4.64533e-48 4.65603e-48 4.6718e-48 4.69149e-48 4.71407e-48 4.73862e-48 4.76441e-48 4.79085e-48 4.8175e-48 4.84407e-48 4.87039e-48 4.89641e-48 4.92217e-48 4.94782e-48 4.97361e-48 4.99987e-48 5.02703e-48 5.0556e-48 5.08607e-48 5.11893e-48 5.15454e-48 5.19306e-48 5.23436e-48 5.27792e-48 5.32277e-48 5.36744e-48 5.40994e-48 5.4478e-48 5.47812e-48 5.49768e-48 5.50309e-48 5.49092e-48 5.4579e-48 5.4011e-48 5.31809e-48 5.20709e-48 5.06714e-48 4.89812e-48 4.70086e-48 4.47715e-48 4.22966e-48 3.96189e-48 3.67803e-48 3.38279e-48 3.0812e-48 2.77844e-48 2.47954e-48 2.18925e-48 1.91183e-48 1.65086e-48 1.4092e-48 1.18886e-48 9.91047e-49 8.16163e-49 6.63901e-49 5.33341e-49 4.23078e-49 3.31358e-49 2.56206e-49 1.9555e-49 1.47323e-49 1.09547e-49 8.03946e-50 5.82283e-50 4.16209e-50 2.93599e-50 2.04391e-50 1.40422e-50 9.52091e-51 6.37096e-51 4.20752e-51 2.74257e-51 1.76448e-51 1.12053e-51 7.02432e-52 4.3469e-52 2.65568e-52 1.60186e-52 9.54002e-53 5.61028e-53 3.25807e-53 1.86857e-53 1.05844e-53 5.92195e-54 3.27294e-54 1.78699e-54 9.63947e-55 5.13768e-55 2.70582e-55 1.40828e-55 7.24381e-56 3.68273e-56 1.85059e-56 9.19014e-57 4.5058e-57 2.17031e-57 1.00298e-57 3.90987e-58 0 
0 3.8172e-76 1.34427e-75 4.32621e-75 1.37092e-74 4.30582e-74 1.34118e-73 4.14296e-73 1.26911e-72 3.85508e-72 1.16114e-71 3.46759e-71 1.02669e-70 3.01364e-70 8.76916e-70 2.52938e-69 7.23154e-69 2.04919e-68 5.75494e-68 1.60169e-67 4.4174e-67 1.20719e-66 3.26874e-66 8.76894e-66 2.3305e-65 6.13556e-65 1.60005e-64 4.13291e-64 1.05728e-63 2.67857e-63 6.71995e-63 1.66934e-62 4.10588e-62 9.99812e-62 2.41016e-61 5.75119e-61 1.35837e-60 3.17535e-60 7.34587e-60 1.68166e-59 3.80926e-59 8.53717e-59 1.89287e-58 4.15171e-58 9.00723e-58 1.93276e-57 4.10155e-57 8.60725e-57 1.78602e-56 3.66418e-56 7.4318e-56 1.49005e-55 2.95294e-55 5.78383e-55 1.11955e-54 2.14142e-54 4.0471e-54 7.55668e-54 1.39387e-53 2.53968e-53 4.57042e-53 8.12299e-53 1.42566e-52 2.47069e-52 4.22748e-52 7.14109e-52 1.19078e-51 1.95993e-51 3.18387e-51 5.10434e-51 8.07526e-51 1.26058e-50 1.94156e-50 2.95028e-50 4.42259e-50 6.5398e-50 9.5389e-50 1.37232e-49 1.94721e-49 2.72491e-49 3.76061e-49 5.11824e-49 6.86957e-49 9.09248e-49 1.18681e-48 1.52768e-48 1.93934e-48 2.42808e-48 2.99839e-48 3.65234e-48 4.38894e-48 5.20371e-48 6.08845e-48 7.03121e-48 8.01658e-48 9.02632e-48 1.00402e-47 1.10372e-47 1.19966e-47 1.28996e-47 1.373e-47 1.44757e-47 1.51293e-47 1.56881e-47 1.61544e-47 1.65348e-47 1.68395e-47 1.70812e-47 1.72741e-47 1.74324e-47 1.75695e-47 1.7697e-47 1.78241e-47 1.79572e-47 1.81003e-47 1.82547e-47 1.84198e-47 1.85934e-47 1.87725e-47 1.89538e-47 1.91341e-47 1.93107e-47 1.94816e-47 1.96452e-47 1.98007e-47 1.99474e-47 2.00848e-47 2.02121e-47 2.03283e-47 2.04314e-47 2.05193e-47 2.0589e-47 2.06369e-47 2.06596e-47 2.06534e-47 2.06149e-47 2.05417e-47 2.04321e-47 2.02855e-47 2.01029e-47 1.98867e-47 1.96406e-47 1.93698e-47 1.90806e-47 1.878e-47 1.84757e-47 1.81757e-47 1.78876e-47 1.76183e-47 1.73742e-47 1.71599e-47 1.69793e-47 1.68342e-47 1.67252e-47 1.66515e-47 1.66109e-47 1.66005e-47 1.66164e-47 1.66545e-47 1.67106e-47 1.67806e-47 1.68608e-47 1.6948e-47 1.70395e-47 1.71332e-47 1.72277e-47 1.73219e-47 1.74152e-47 1.75074e-47 1.75988e-47 1.76897e-47 1.77811e-47 1.78743e-47 1.79707e-47 1.80722e-47 1.81806e-47 1.82975e-47 1.84244e-47 1.85618e-47 1.87094e-47 1.88653e-47 1.90261e-47 1.91866e-47 1.93398e-47 1.94768e-47 1.95874e-47 1.96602e-47 1.96829e-47 1.96433e-47 1.95297e-47 1.93314e-47 1.90398e-47 1.86484e-47 1.81534e-47 1.75543e-47 1.68538e-47 1.60582e-47 1.51769e-47 1.42221e-47 1.32089e-47 1.21538e-47 1.10751e-47 9.9911e-48 8.92001e-48 7.87893e-48 6.8832e-48 5.94586e-48 5.07726e-48 4.28481e-48 3.57296e-48 2.94329e-48 2.3948e-48 1.92429e-48 1.52676e-48 1.19598e-48 9.24863e-49 7.05986e-49 5.31919e-49 3.95549e-49 2.90295e-49 2.10256e-49 1.50286e-49 1.06008e-49 7.37931e-50 5.06929e-50 3.4367e-50 2.29936e-50 1.51831e-50 9.89493e-51 6.36482e-51 4.04111e-51 2.53268e-51 1.56692e-51 9.57042e-52 5.7711e-52 3.43605e-52 2.02006e-52 1.17275e-52 6.72383e-53 3.80742e-53 2.12952e-53 1.17654e-53 6.42152e-54 3.46269e-54 1.84489e-54 9.71279e-55 5.05326e-55 2.5983e-55 1.32047e-55 6.63294e-56 3.29272e-56 1.61377e-56 7.77023e-57 3.58973e-57 1.39903e-57 0 
0 1.22859e-75 4.32748e-75 1.39303e-74 4.41544e-74 1.38718e-73 4.32195e-73 1.33543e-72 4.09195e-72 1.24333e-71 3.74598e-71 1.11902e-70 3.31422e-70 9.73125e-70 2.83253e-69 8.1728e-69 2.3374e-68 6.62569e-68 1.8614e-67 5.1824e-67 1.4298e-66 3.90881e-66 1.05879e-65 2.84148e-65 7.55465e-65 1.98972e-64 5.19095e-64 1.34137e-63 3.43291e-63 8.70085e-63 2.1838e-62 5.42727e-62 1.33548e-61 3.25346e-61 7.84648e-61 1.87322e-60 4.42644e-60 1.03523e-59 2.39607e-59 5.48794e-59 1.24374e-58 2.78882e-58 6.18657e-58 1.35762e-57 2.94693e-57 6.3268e-57 1.34333e-56 2.82053e-56 5.85581e-56 1.20202e-55 2.43929e-55 4.89334e-55 9.70278e-55 1.9015e-54 3.68266e-54 7.04782e-54 1.3327e-53 2.48975e-53 4.59497e-53 8.37665e-53 1.50827e-52 2.68205e-52 4.7097e-52 8.16616e-52 1.39797e-51 2.36264e-51 3.9416e-51 6.49063e-51 1.05488e-50 1.69191e-50 2.67782e-50 4.18191e-50 6.44355e-50 9.79489e-50 1.46881e-49 2.17269e-49 3.17004e-49 4.56187e-49 6.47458e-49 9.06254e-49 1.25096e-48 1.70285e-48 2.28583e-48 3.0258e-48 3.94974e-48 5.08433e-48 6.45431e-48 8.0805e-48 9.97762e-48 1.21522e-47 1.46005e-47 1.73073e-47 2.02447e-47 2.33724e-47 2.66385e-47 2.99819e-47 3.3335e-47 3.66272e-47 3.97899e-47 4.27599e-47 4.54843e-47 4.79231e-47 5.00519e-47 5.18627e-47 5.3364e-47 5.45785e-47 5.55411e-47 5.62949e-47 5.68874e-47 5.73668e-47 5.77778e-47 5.81593e-47 5.85422e-47 5.89481e-47 5.93898e-47 5.98718e-47 6.03918e-47 6.09426e-47 6.1514e-47 6.20948e-47 6.26744e-47 6.32435e-47 6.37951e-47 6.43241e-47 6.48274e-47 6.53028e-47 6.57485e-47 6.6162e-47 6.65395e-47 6.68753e-47 6.71616e-47 6.73889e-47 6.7546e-47 6.76209e-47 6.76017e-47 6.74778e-47 6.72406e-47 6.68847e-47 6.64085e-47 6.5815e-47 6.51116e-47 6.43109e-47 6.34295e-47 6.24878e-47 6.15093e-47 6.05188e-47 5.95421e-47 5.86041e-47 5.77278e-47 5.69331e-47 5.62362e-47 5.56486e-47 5.5177e-47 5.4823e-47 5.45839e-47 5.44527e-47 5.44194e-47 5.44718e-47 5.45963e-47 5.47791e-47 5.50069e-47 5.52676e-47 5.55508e-47 5.58478e-47 5.61521e-47 5.64586e-47 5.67641e-47 5.70667e-47 5.73658e-47 5.7662e-47 5.7957e-47 5.82537e-47 5.85562e-47 5.88695e-47 5.91994e-47 5.95521e-47 5.99333e-47 6.03475e-47 6.07967e-47 6.12798e-47 6.17912e-47 6.23198e-47 6.28489e-47 6.33557e-47 6.38115e-47 6.41829e-47 6.44323e-47 6.452e-47 6.44059e-47 6.40512e-47 6.34211e-47 6.24863e-47 6.12249e-47 5.96244e-47 5.7682e-47 5.54063e-47 5.28164e-47 4.99427e-47 4.68249e-47 4.35115e-47 4.0057e-47 3.65206e-47 3.2963e-47 2.9444e-47 2.60202e-47 2.27425e-47 1.96542e-47 1.67901e-47 1.41752e-47 1.18245e-47 9.74392e-48 7.93053e-48 6.37411e-48 5.05854e-48 3.96337e-48 3.06543e-48 2.34028e-48 1.76345e-48 1.31144e-48 9.62503e-49 6.97129e-49 4.98276e-49 3.51453e-49 2.44628e-49 1.6803e-49 1.13899e-49 7.61929e-50 5.03018e-50 3.27751e-50 2.10773e-50 1.33788e-50 8.38256e-51 5.18461e-51 3.16566e-51 1.90831e-51 1.1358e-51 6.675e-52 3.87375e-52 2.22012e-52 1.25667e-52 7.02583e-53 3.8801e-53 2.11687e-53 1.141e-53 6.07652e-54 3.19771e-54 1.66294e-54 8.54675e-55 4.34157e-55 2.17986e-55 1.08164e-55 5.29878e-56 2.55024e-56 1.17771e-56 4.58857e-57 0 
0 3.89358e-75 1.37173e-74 4.41678e-74 1.40034e-73 4.40057e-73 1.37145e-72 4.23881e-72 1.29922e-71 3.94882e-71 1.19009e-70 3.55621e-70 1.05359e-69 3.09456e-69 9.01052e-69 2.60073e-68 7.4406e-68 2.1099e-67 5.92964e-67 1.65151e-66 4.55816e-66 1.2466e-65 3.37803e-65 9.06924e-65 2.41223e-64 6.35591e-64 1.65889e-63 4.28849e-63 1.09802e-62 2.78423e-62 6.99121e-62 1.73829e-61 4.2794e-61 1.04303e-60 2.51674e-60 6.01126e-60 1.42117e-59 3.32544e-59 7.70079e-59 1.7647e-58 4.00145e-58 8.97719e-58 1.99252e-57 4.37489e-57 9.50158e-57 2.04104e-56 4.33604e-56 9.10928e-56 1.89228e-55 3.88647e-55 7.89144e-55 1.58397e-54 3.14259e-54 6.16221e-54 1.19413e-53 2.28663e-53 4.32637e-53 8.08714e-53 1.49337e-52 2.72397e-52 4.90743e-52 8.73138e-52 1.53408e-51 2.66137e-51 4.55846e-51 7.70802e-51 1.28659e-50 2.11968e-50 3.44663e-50 5.53064e-50 8.75739e-50 1.36822e-49 2.10906e-49 3.20726e-49 4.81131e-49 7.11943e-49 1.03909e-48 1.49576e-48 2.12347e-48 2.97296e-48 4.10462e-48 5.58835e-48 7.50261e-48 9.93244e-48 1.29662e-47 1.66914e-47 2.11888e-47 2.65261e-47 3.27508e-47 3.98832e-47 4.791e-47 5.67792e-47 6.63976e-47 7.6631e-47 8.73074e-47 9.82243e-47 1.09158e-46 1.19877e-46 1.30154e-46 1.39783e-46 1.48591e-46 1.56448e-46 1.63276e-46 1.69052e-46 1.73805e-46 1.77615e-46 1.80597e-46 1.82897e-46 1.84672e-46 1.86082e-46 1.87276e-46 1.88382e-46 1.89502e-46 1.90707e-46 1.92039e-46 1.93513e-46 1.9512e-46 1.96836e-46 1.98628e-46 2.00458e-46 2.02291e-46 2.04096e-46 2.05848e-46 2.07532e-46 2.09136e-46 2.10653e-46 2.12077e-46 2.134e-46 2.14609e-46 2.15685e-46 2.16604e-46 2.17335e-46 2.17842e-46 2.18086e-46 2.18028e-46 2.17635e-46 2.16878e-46 2.15741e-46 2.14217e-46 2.12315e-46 2.10062e-46 2.07495e-46 2.04669e-46 2.01649e-46 1.98511e-46 1.95334e-46 1.92202e-46 1.89194e-46 1.86384e-46 1.83836e-46 1.81603e-46 1.79721e-46 1.78211e-46 1.77078e-46 1.76314e-46 1.75896e-46 1.75792e-46 1.75962e-46 1.76363e-46 1.76949e-46 1.7768e-46 1.78514e-46 1.7942e-46 1.8037e-46 1.81343e-46 1.82322e-46 1.83298e-46 1.84264e-46 1.8522e-46 1.86166e-46 1.87108e-46 1.88057e-46 1.89024e-46 1.90027e-46 1.91084e-46 1.92215e-46 1.93439e-46 1.94771e-46 1.96218e-46 1.97777e-46 1.9943e-46 2.01143e-46 2.02863e-46 2.04516e-46 2.06012e-46 2.07242e-46 2.08086e-46 2.08416e-46 2.08101e-46 2.07017e-46 2.0505e-46 2.02103e-46 1.98104e-46 1.93011e-46 1.86811e-46 1.7953e-46 1.71227e-46 1.61997e-46 1.51968e-46 1.41292e-46 1.30147e-46 1.18723e-46 1.07216e-46 9.58216e-47 8.4723e-47 7.40873e-47 6.40572e-47 5.47469e-47 4.62397e-47 3.85868e-47 3.18085e-47 2.58971e-47 2.08205e-47 1.65274e-47 1.2952e-47 1.00194e-47 7.65033e-48 5.76527e-48 4.28781e-48 3.14707e-48 2.27939e-48 1.62915e-48 1.14903e-48 7.99707e-49 5.49237e-49 3.72244e-49 2.48969e-49 1.64334e-49 1.0705e-49 6.88258e-50 4.36753e-50 2.7357e-50 1.6915e-50 1.03247e-50 6.22172e-51 3.70173e-51 2.17466e-51 1.26155e-51 7.22726e-52 4.08919e-52 2.28523e-52 1.2615e-52 6.87935e-53 3.70633e-53 1.97295e-53 1.03777e-53 5.39432e-54 2.77114e-54 1.40702e-54 7.06117e-55 3.50207e-55 1.71481e-55 8.24939e-56 3.80804e-56 1.48323e-56 0 
0 1.22302e-74 4.3097e-74 1.38802e-73 4.40192e-73 1.38369e-72 4.31354e-72 1.3336e-71 4.08879e-71 1.24312e-70 3.74767e-70 1.12024e-69 3.31998e-69 9.75464e-69 2.84126e-68 8.20369e-68 2.34789e-67 6.66025e-67 1.87249e-66 5.2172e-66 1.44051e-65 3.94117e-65 1.06841e-64 2.86962e-64 7.63582e-64 2.0128e-63 5.25568e-63 1.35929e-62 3.48188e-62 8.83297e-62 2.219e-61 5.51995e-61 1.35958e-60 3.31539e-60 8.00369e-60 1.91266e-59 4.52422e-59 1.05918e-58 2.45407e-58 5.6267e-58 1.27655e-57 2.86548e-57 6.36357e-57 1.398e-56 3.03796e-56 6.52958e-56 1.38796e-55 2.91756e-55 6.06421e-55 1.24623e-54 2.53196e-54 5.08516e-54 1.00949e-53 1.98066e-53 3.84047e-53 7.35843e-53 1.39306e-52 2.60555e-52 4.81424e-52 8.78648e-52 1.58387e-51 2.81966e-51 4.95687e-51 8.60418e-51 1.47455e-50 2.49471e-50 4.16626e-50 6.86752e-50 1.11723e-49 1.79363e-49 2.84143e-49 4.44135e-49 6.84908e-49 1.04197e-48 1.5637e-48 2.31469e-48 3.37945e-48 4.86618e-48 6.91027e-48 9.67712e-48 1.33636e-47 1.81976e-47 2.44347e-47 3.23519e-47 4.22366e-47 5.43729e-47 6.90228e-47 8.64047e-47 1.06671e-46 1.29883e-46 1.55994e-46 1.84828e-46 2.16077e-46 2.49297e-46 2.8392e-46 3.19282e-46 3.5465e-46 3.89264e-46 4.22386e-46 4.53345e-46 4.81578e-46 5.0667e-46 5.28372e-46 5.46619e-46 5.61517e-46 5.73331e-46 5.82451e-46 5.89357e-46 5.94571e-46 5.98619e-46 6.01989e-46 6.05104e-46 6.08295e-46 6.11797e-46 6.15745e-46 6.20184e-46 6.25087e-46 6.30374e-46 6.35934e-46 6.41642e-46 6.47381e-46 6.53048e-46 6.58565e-46 6.63876e-46 6.68942e-46 6.73741e-46 6.7825e-46 6.82443e-46 6.8628e-46 6.89701e-46 6.92627e-46 6.94958e-46 6.96578e-46 6.97364e-46 6.97195e-46 6.95958e-46 6.93566e-46 6.8996e-46 6.85125e-46 6.79089e-46 6.7193e-46 6.63774e-46 6.54791e-46 6.45191e-46 6.35212e-46 6.25112e-46 6.15153e-46 6.05589e-46 5.96657e-46 5.88562e-46 5.81466e-46 5.75488e-46 5.70695e-46 5.67104e-46 5.64684e-46 5.63365e-46 5.63042e-46 5.63589e-46 5.64866e-46 5.66733e-46 5.69053e-46 5.71703e-46 5.74577e-46 5.77588e-46 5.80669e-46 5.83771e-46 5.86861e-46 5.89921e-46 5.92945e-46 5.95941e-46 5.98926e-46 6.01931e-46 6.04998e-46 6.08179e-46 6.11535e-46 6.15132e-46 6.19029e-46 6.23276e-46 6.27898e-46 6.32887e-46 6.38189e-46 6.43696e-46 6.49241e-46 6.54592e-46 6.5946e-46 6.63503e-46 6.66335e-46 6.67547e-46 6.66722e-46 6.63458e-46 6.57386e-46 6.48194e-46 6.35643e-46 6.19587e-46 5.99983e-46 5.76898e-46 5.50517e-46 5.21134e-46 4.89149e-46 4.55051e-46 4.19401e-46 3.82808e-46 3.45902e-46 3.09312e-46 2.73633e-46 2.39406e-46 2.07097e-46 1.77079e-46 1.49627e-46 1.24913e-46 1.03008e-46 8.38926e-47 6.74672e-47 5.35695e-47 4.19899e-47 3.24884e-47 2.48102e-47 1.86989e-47 1.39079e-47 1.02082e-47 7.3937e-48 5.28435e-48 3.72678e-48 2.59352e-48 1.781e-48 1.20688e-48 8.07052e-49 5.32588e-49 3.46858e-49 2.22947e-49 1.41437e-49 8.85653e-50 5.47429e-50 3.34029e-50 2.01216e-50 1.19672e-50 7.02766e-51 4.07518e-51 2.33365e-51 1.31982e-51 7.37255e-52 4.068e-52 2.21739e-52 1.19409e-52 6.35342e-53 3.34031e-53 1.73545e-53 8.91098e-54 4.52226e-54 2.26841e-54 1.12449e-54 5.50347e-55 2.64631e-55 1.22106e-55 4.7545e-56 0 
0 3.8098e-74 1.34281e-73 4.32592e-73 1.37229e-72 4.31487e-72 1.34552e-71 4.16114e-71 1.27619e-70 3.88125e-70 1.17047e-69 3.49986e-69 1.03758e-68 3.04963e-68 8.88588e-68 2.56658e-67 7.34823e-67 2.08525e-66 5.86481e-66 1.63471e-65 4.51537e-65 1.23589e-64 3.35176e-64 9.00625e-64 2.39752e-63 6.32264e-63 1.65166e-62 4.27367e-62 1.09523e-61 2.77974e-61 6.98657e-61 1.73882e-60 4.28489e-60 1.04541e-59 2.52503e-59 6.03727e-59 1.42881e-58 3.34685e-58 7.75866e-58 1.77989e-57 4.04033e-57 9.0745e-57 2.01638e-56 4.43232e-56 9.63735e-56 2.0726e-55 4.40823e-55 9.27184e-55 1.92833e-54 3.96523e-54 8.06101e-54 1.61995e-53 3.21785e-53 6.3174e-53 1.22569e-52 2.34988e-52 4.45141e-52 8.33087e-52 1.54022e-51 2.81275e-51 5.07335e-51 9.03712e-51 1.58963e-50 2.76087e-50 4.73417e-50 8.01392e-50 1.33909e-49 2.20848e-49 3.59468e-49 5.7739e-49 9.15129e-49 1.43108e-48 2.20787e-48 3.36032e-48 5.04488e-48 7.47056e-48 1.09108e-47 1.57159e-47 2.2324e-47 3.12705e-47 4.31926e-47 5.88278e-47 7.90028e-47 1.04613e-46 1.36586e-46 1.75839e-46 2.23215e-46 2.79412e-46 3.44914e-46 4.1991e-46 5.04228e-46 5.97287e-46 6.98065e-46 8.05107e-46 9.16559e-46 1.03025e-45 1.1438e-45 1.25473e-45 1.36066e-45 1.45941e-45 1.54919e-45 1.62866e-45 1.69705e-45 1.75417e-45 1.8004e-45 1.83662e-45 1.86415e-45 1.88454e-45 1.89952e-45 1.9108e-45 1.91999e-45 1.92845e-45 1.93727e-45 1.9472e-45 1.95868e-45 1.97185e-45 1.98662e-45 2.00272e-45 2.01979e-45 2.03742e-45 2.05522e-45 2.07286e-45 2.09008e-45 2.10668e-45 2.12255e-45 2.1376e-45 2.15176e-45 2.16494e-45 2.17702e-45 2.18781e-45 2.19704e-45 2.20441e-45 2.20956e-45 2.21207e-45 2.21158e-45 2.20773e-45 2.20022e-45 2.18889e-45 2.17368e-45 2.15467e-45 2.13211e-45 2.1064e-45 2.07808e-45 2.04781e-45 2.01634e-45 1.98449e-45 1.95308e-45 1.92292e-45 1.89476e-45 1.86924e-45 1.84688e-45 1.82805e-45 1.81296e-45 1.80166e-45 1.79406e-45 1.78993e-45 1.78894e-45 1.79069e-45 1.79473e-45 1.80062e-45 1.80793e-45 1.81628e-45 1.82532e-45 1.83479e-45 1.84447e-45 1.85421e-45 1.86391e-45 1.87352e-45 1.88302e-45 1.89242e-45 1.9018e-45 1.91124e-45 1.92088e-45 1.9309e-45 1.94147e-45 1.95281e-45 1.96512e-45 1.97856e-45 1.99321e-45 2.00905e-45 2.02592e-45 2.04349e-45 2.06123e-45 2.07842e-45 2.09415e-45 2.10734e-45 2.11677e-45 2.12114e-45 2.11913e-45 2.10946e-45 2.09093e-45 2.06254e-45 2.02352e-45 1.97336e-45 1.91191e-45 1.83935e-45 1.75624e-45 1.66347e-45 1.56231e-45 1.45428e-45 1.34116e-45 1.22488e-45 1.10744e-45 9.90869e-46 8.77063e-46 7.67769e-46 6.64492e-46 5.6845e-46 4.80541e-46 4.01336e-46 3.31082e-46 2.69734e-46 2.16988e-46 1.72336e-46 1.35114e-46 1.0456e-46 7.98605e-47 6.01958e-47 4.47759e-47 3.28659e-47 2.38045e-47 1.70127e-47 1.19974e-47 8.3483e-48 5.73211e-48 3.88368e-48 2.59656e-48 1.71314e-48 1.11544e-48 7.16771e-49 4.54586e-49 2.84564e-49 1.75833e-49 1.07251e-49 6.45832e-50 3.83957e-50 2.25385e-50 1.30641e-50 7.47798e-51 4.22738e-51 2.36036e-51 1.30179e-51 7.09249e-52 3.81758e-52 2.03024e-52 1.06688e-52 5.54021e-53 2.8433e-53 1.44224e-53 7.23075e-54 3.58263e-54 1.75253e-54 8.42285e-55 3.88477e-55 1.51214e-55 0 
0 1.17696e-73 4.14927e-73 1.33707e-72 4.24273e-72 1.33443e-71 4.16244e-71 1.28767e-70 3.95042e-70 1.20182e-69 3.62552e-69 1.08445e-68 3.21611e-68 9.45604e-68 2.75625e-67 7.96403e-67 2.281e-66 6.47541e-66 1.82194e-65 5.08037e-65 1.40386e-64 3.84408e-64 1.04297e-63 2.80369e-63 7.4669e-63 1.97003e-62 5.14866e-62 1.33284e-61 3.41735e-61 8.67757e-61 2.18209e-60 5.4335e-60 1.33964e-59 3.2701e-59 7.90256e-59 1.89049e-58 4.47655e-58 1.04916e-57 2.43353e-57 5.58583e-57 1.2687e-56 2.85113e-56 6.33902e-56 1.39424e-55 3.03336e-55 6.52744e-55 1.38917e-54 2.92364e-54 6.08426e-54 1.25189e-53 2.54658e-53 5.12085e-53 1.01784e-52 1.99952e-52 3.88187e-52 7.44701e-52 1.41158e-51 2.64346e-51 4.8903e-51 8.93623e-51 1.61282e-50 2.87465e-50 5.05955e-50 8.7927e-50 1.5086e-49 2.5552e-49 4.272e-49 7.04944e-49 1.14803e-48 1.84496e-48 2.92562e-48 4.57727e-48 7.06507e-48 1.07576e-47 1.61571e-47 2.3935e-47 3.49699e-47 5.0387e-47 7.15947e-47 1.00314e-46 1.38591e-46 1.88797e-46 2.53585e-46 3.35829e-46 4.38506e-46 5.64547e-46 7.16644e-46 8.97023e-46 1.1072e-45 1.34774e-45 1.61805e-45 1.91619e-45 2.23882e-45 2.5812e-45 2.93732e-45 3.30012e-45 3.66191e-45 4.01474e-45 4.35091e-45 4.66347e-45 4.94666e-45 5.19628e-45 5.40992e-45 5.58707e-45 5.72906e-45 5.83886e-45 5.92073e-45 5.97982e-45 6.02173e-45 6.05205e-45 6.07595e-45 6.09785e-45 6.12125e-45 6.14859e-45 6.18124e-45 6.21967e-45 6.26355e-45 6.31202e-45 6.36387e-45 6.41779e-45 6.47249e-45 6.5269e-45 6.58014e-45 6.6316e-45 6.68087e-45 6.72767e-45 6.77177e-45 6.81288e-45 6.85059e-45 6.8843e-45 6.91322e-45 6.93635e-45 6.95253e-45 6.96054e-45 6.95913e-45 6.94721e-45 6.92388e-45 6.88856e-45 6.84108e-45 6.78171e-45 6.71122e-45 6.63084e-45 6.54228e-45 6.44759e-45 6.34916e-45 6.24951e-45 6.15126e-45 6.05693e-45 5.96886e-45 5.88906e-45 5.81917e-45 5.76034e-45 5.71323e-45 5.678e-45 5.65432e-45 5.6415e-45 5.63848e-45 5.64401e-45 5.6567e-45 5.67514e-45 5.698e-45 5.72405e-45 5.75227e-45 5.78178e-45 5.81195e-45 5.8423e-45 5.87252e-45 5.90244e-45 5.932e-45 5.9613e-45 5.99051e-45 6.01994e-45 6.05001e-45 6.08125e-45 6.11429e-45 6.14978e-45 6.18835e-45 6.23052e-45 6.27658e-45 6.32648e-45 6.37976e-45 6.43537e-45 6.49172e-45 6.54654e-45 6.597e-45 6.63972e-45 6.67088e-45 6.68639e-45 6.68208e-45 6.65387e-45 6.598e-45 6.51123e-45 6.39105e-45 6.23581e-45 6.0449e-45 5.8188e-45 5.55915e-45 5.26874e-45 4.9514e-45 4.61193e-45 4.25587e-45 3.88931e-45 3.51859e-45 3.1501e-45 2.78991e-45 2.44361e-45 2.11602e-45 1.81108e-45 1.53171e-45 1.2798e-45 1.05618e-45 8.60777e-46 6.92671e-46 5.50281e-46 4.3153e-46 3.34009e-46 2.55147e-46 1.92341e-46 1.43081e-46 1.05027e-46 7.60695e-47 5.43637e-47 3.83345e-47 2.66721e-47 1.8311e-47 1.24042e-47 8.29159e-48 5.46934e-48 3.56024e-48 2.28713e-48 1.4501e-48 9.07444e-49 5.60518e-49 3.4177e-49 2.05724e-49 1.22257e-49 7.17361e-50 4.1563e-50 2.37804e-50 1.34372e-50 7.49916e-51 4.134e-51 2.25122e-51 1.21114e-51 6.4378e-52 3.38132e-52 1.75501e-52 9.00229e-53 4.56397e-53 2.287e-53 1.13256e-53 5.53734e-54 2.65999e-54 1.22628e-54 4.77171e-55 0 
0 3.60567e-73 1.27145e-72 4.09828e-72 1.30083e-71 4.09261e-71 1.27699e-70 3.95166e-70 1.21271e-69 3.69062e-69 1.11372e-68 3.33246e-68 9.88643e-68 2.90787e-67 8.47899e-67 2.45088e-66 7.02233e-66 1.99432e-65 5.61353e-65 1.56594e-64 4.32899e-64 1.18588e-63 3.21891e-63 8.65687e-63 2.30658e-62 6.08837e-62 1.59195e-61 4.12306e-61 1.05765e-60 2.687e-60 6.76024e-60 1.6842e-59 4.15458e-59 1.01469e-58 2.45343e-58 5.87243e-58 1.39133e-57 3.26268e-57 7.5721e-57 1.73908e-56 3.95228e-56 8.88716e-56 1.9771e-55 4.35119e-55 9.47243e-55 2.03962e-54 4.34346e-54 9.14698e-54 1.90475e-53 3.92168e-53 7.98258e-53 1.60623e-52 3.19468e-52 6.27994e-52 1.21998e-51 2.34194e-51 4.44203e-51 8.32393e-51 1.54089e-50 2.81753e-50 5.08832e-50 9.07503e-50 1.59825e-49 2.77921e-49 4.77127e-49 8.08615e-49 1.3527e-48 2.23342e-48 3.63922e-48 5.85159e-48 9.28384e-48 1.45322e-47 2.24413e-47 3.41854e-47 5.13659e-47 7.61234e-47 1.1126e-46 1.60366e-46 2.27934e-46 3.19454e-46 4.41458e-46 6.01501e-46 8.0805e-46 1.07025e-45 1.39759e-45 1.79938e-45 2.28414e-45 2.8589e-45 3.52839e-45 4.29429e-45 5.15451e-45 6.10271e-45 7.12801e-45 8.21507e-45 9.34447e-45 1.04936e-44 1.16377e-44 1.27513e-44 1.38099e-44 1.47914e-44 1.56774e-44 1.64549e-44 1.71164e-44 1.76607e-44 1.80923e-44 1.8421e-44 1.86607e-44 1.88283e-44 1.89418e-44 1.90192e-44 1.90772e-44 1.91299e-44 1.91886e-44 1.9261e-44 1.93515e-44 1.94616e-44 1.959e-44 1.97341e-44 1.98899e-44 2.00531e-44 2.02196e-44 2.03858e-44 2.0549e-44 2.07071e-44 2.08588e-44 2.10031e-44 2.11392e-44 2.12663e-44 2.13831e-44 2.14876e-44 2.15775e-44 2.16494e-44 2.17e-44 2.17252e-44 2.17213e-44 2.16847e-44 2.16128e-44 2.15036e-44 2.13566e-44 2.11727e-44 2.09542e-44 2.0705e-44 2.04303e-44 2.01366e-44 1.98312e-44 1.9522e-44 1.92172e-44 1.89246e-44 1.86514e-44 1.84039e-44 1.81873e-44 1.8005e-44 1.78591e-44 1.77501e-44 1.7677e-44 1.76375e-44 1.76284e-44 1.76457e-44 1.76853e-44 1.77425e-44 1.78134e-44 1.78941e-44 1.79814e-44 1.80727e-44 1.81659e-44 1.82597e-44 1.8353e-44 1.84454e-44 1.85367e-44 1.86271e-44 1.87174e-44 1.88083e-44 1.89013e-44 1.89981e-44 1.91004e-44 1.92106e-44 1.93304e-44 1.94617e-44 1.96054e-44 1.97614e-44 1.99284e-44 2.01031e-44 2.02807e-44 2.04542e-44 2.06149e-44 2.07522e-44 2.08543e-44 2.09085e-44 2.09017e-44 2.0821e-44 2.06546e-44 2.03922e-44 2.00257e-44 1.95497e-44 1.89619e-44 1.82635e-44 1.74594e-44 1.65578e-44 1.55707e-44 1.45126e-44 1.3401e-44 1.22547e-44 1.10937e-44 9.93808e-45 8.80704e-45 7.71829e-45 6.68723e-45 5.72648e-45 4.84547e-45 4.05033e-45 3.34397e-45 2.72629e-45 2.19456e-45 1.74392e-45 1.3679e-45 1.05898e-45 8.09071e-46 6.09984e-46 4.53795e-46 3.33114e-46 2.41269e-46 1.72418e-46 1.21571e-46 8.45765e-47 5.80556e-47 3.93209e-47 2.62787e-47 1.733e-47 1.12779e-47 7.24299e-48 4.59079e-48 2.87188e-48 1.77329e-48 1.08084e-48 6.50343e-49 3.86326e-49 2.26585e-49 1.31222e-49 7.50449e-50 4.23846e-50 2.36431e-50 1.30272e-50 7.09059e-51 3.81276e-51 2.02563e-51 1.06337e-51 5.51633e-52 2.82811e-52 1.43304e-52 7.17712e-53 3.55234e-53 1.73591e-53 8.33458e-54 3.84056e-54 1.49393e-54 0 
0 1.09535e-72 3.8634e-72 1.24565e-71 3.95498e-71 1.24468e-70 3.8849e-70 1.20258e-69 3.69178e-69 1.12389e-68 3.39274e-68 1.01553e-67 3.01387e-67 8.86788e-67 2.58674e-66 7.47996e-66 2.14402e-65 6.09142e-65 1.71529e-64 4.78697e-64 1.32391e-63 3.62829e-63 9.8529e-63 2.65103e-62 7.06681e-62 1.86622e-61 4.88201e-61 1.26504e-60 3.24672e-60 8.25261e-60 2.07736e-59 5.1781e-59 1.27802e-58 3.12306e-58 7.55548e-58 1.80947e-57 4.28954e-57 1.00649e-56 2.33725e-56 5.37114e-56 1.2214e-55 2.74813e-55 6.11748e-55 1.34717e-54 2.93461e-54 6.3229e-54 1.34735e-53 2.83926e-53 5.91628e-53 1.2189e-52 2.48272e-52 4.99898e-52 9.94922e-52 1.95708e-51 3.80448e-51 7.30817e-51 1.38709e-50 2.601e-50 4.81805e-50 8.81565e-50 1.59311e-49 2.84315e-49 5.01042e-49 8.71816e-49 1.49764e-48 2.53969e-48 4.25109e-48 7.023e-48 1.145e-47 1.84209e-47 2.92413e-47 4.57955e-47 7.0754e-47 1.07832e-46 1.62096e-46 2.40322e-46 3.51385e-46 5.0665e-46 7.20351e-46 1.00987e-45 1.39591e-45 1.90237e-45 2.55606e-45 3.38591e-45 4.42188e-45 5.69334e-45 7.22711e-45 9.04519e-45 1.11622e-44 1.3583e-44 1.63005e-44 1.9294e-44 2.25283e-44 2.59541e-44 2.95092e-44 3.31215e-44 3.67121e-44 4.02001e-44 4.35077e-44 4.65651e-44 4.93149e-44 5.17161e-44 5.37462e-44 5.54022e-44 5.66997e-44 5.76709e-44 5.8361e-44 5.88241e-44 5.91183e-44 5.93013e-44 5.94261e-44 5.95382e-44 5.96728e-44 5.98547e-44 6.00977e-44 6.0406e-44 6.0776e-44 6.11986e-44 6.16612e-44 6.21499e-44 6.26516e-44 6.31548e-44 6.36504e-44 6.41319e-44 6.45946e-44 6.50357e-44 6.54526e-44 6.58424e-44 6.62009e-44 6.65223e-44 6.6799e-44 6.70211e-44 6.71776e-44 6.72564e-44 6.72457e-44 6.71347e-44 6.69148e-44 6.65801e-44 6.6129e-44 6.55641e-44 6.48924e-44 6.41261e-44 6.32811e-44 6.23774e-44 6.14377e-44 6.04864e-44 5.95484e-44 5.86481e-44 5.78077e-44 5.70467e-44 5.63807e-44 5.58205e-44 5.53725e-44 5.5038e-44 5.4814e-44 5.46935e-44 5.46664e-44 5.47205e-44 5.48425e-44 5.50189e-44 5.52368e-44 5.54846e-44 5.57525e-44 5.60324e-44 5.63181e-44 5.66053e-44 5.68911e-44 5.71739e-44 5.74535e-44 5.77306e-44 5.8007e-44 5.82858e-44 5.85711e-44 5.8868e-44 5.91827e-44 5.95216e-44 5.98912e-44 6.02968e-44 6.07414e-44 6.12253e-44 6.17442e-44 6.22888e-44 6.28443e-44 6.33893e-44 6.38972e-44 6.43354e-44 6.46675e-44 6.48541e-44 6.48546e-44 6.46289e-44 6.41399e-44 6.33551e-44 6.22486e-44 6.08027e-44 5.90095e-44 5.68715e-44 5.44026e-44 5.16278e-44 4.85826e-44 4.53124e-44 4.18701e-44 3.83146e-44 3.47078e-44 3.11123e-44 2.75886e-44 2.41925e-44 2.09725e-44 1.7969e-44 1.5212e-44 1.27215e-44 1.05073e-44 8.56962e-45 6.90049e-45 5.48509e-45 4.30347e-45 3.33225e-45 2.54627e-45 1.91994e-45 1.42843e-45 1.04859e-45 7.59477e-46 5.42721e-46 3.8264e-46 2.6617e-46 1.82679e-46 1.23706e-46 8.26563e-47 5.44962e-47 3.54552e-47 2.27635e-47 1.44235e-47 9.01983e-48 5.56742e-48 3.39209e-48 2.04019e-48 1.21143e-48 7.10206e-49 4.11115e-49 2.35003e-49 1.32663e-49 7.39664e-50 4.07344e-50 2.21601e-50 1.19098e-50 6.32406e-51 3.3181e-51 1.72037e-51 8.81523e-52 4.46435e-52 2.23468e-52 1.10546e-52 5.39908e-53 2.59089e-53 1.19331e-53 4.64019e-54 0 