# vtk DataFile Version 3.0
Gray-Scott Simulation Output
ASCII
DATASET STRUCTURED_POINTS
DIMENSIONS 256 256 1
SPACING 1.0 1.0 1.0
ORIGIN 0 0 0
POINT_DATA 65536
SCALARS u double
LOOKUP_TABLE default
0 0 0 0 0 0 0 0 0 0 0 0 0 0 0 0 0 0 0 0 0 0 0 0 0 0 0 0 0 0 0 0 0 0 0 0 0 0 0 0 0 0 0 0 0 0 0 0 0 0 0 0 0 0 0 0 0 0 0 0 0 0 0 0 0 0 0 0 0 0 0 0 0 0 0 0 0 0 0 0 0 0 0 0 0 0 0 0 0 0 0 0 0 0 0 0 0 0 0 0 0 0 0 0 0 0 0 0 0 0 0 0 0 0 0 0 0 0 0 0 0 0 0 0 0 0 0 0 0 0 0 0 0 0 0 0 0 0 0 0 0 0 0 0 0 0 0 0 0 0 0 0 0 0 0 0 0 0 0 0 0 0 0 0 0 0 0 0 0 0 0 0 0 0 0 0 0 0 0 0 0 0 0 0 0 0 0 0 0 0 0 0 0 0 0 0 0 0 0 0 0 0 0 0 0 0 0 0 0 0 0 0 0 0 0 0 0 0 0 0 0 0 0 0 0 0 0 0 0 0 0 0 0 0 0 0 0 0 0 0 0 0 0 0 0 0 0 0 0 0 0 0 0 0 0 0 
0 4.44409e-74 1.45764e-73 4.31326e-73 1.25381e-72 3.61222e-72 1.0324e-71 2.92738e-71 8.23477e-71 2.29796e-70 6.36109e-70 1.74661e-69 4.75675e-69 1.28486e-68 3.44195e-68 9.14402e-68 2.40895e-67 6.29292e-67 1.63e-66 4.18607e-66 1.06582e-65 2.69029e-65 6.73167e-65 1.66966e-64 4.1048e-64 1.0002e-63 2.41536e-63 5.78037e-63 1.37081e-62 3.22121e-62 7.49988e-62 1.73003e-61 3.95355e-61 8.95009e-61 2.00698e-60 4.45766e-60 9.80586e-60 2.13624e-59 4.6086e-59 9.84491e-59 2.08231e-58 4.36054e-58 9.03985e-58 1.85514e-57 3.76839e-57 7.57639e-57 1.50752e-56 2.96843e-56 5.78386e-56 1.11507e-55 2.12688e-55 4.01335e-55 7.49137e-55 1.38315e-54 2.52577e-54 4.56144e-54 8.14624e-54 1.43855e-53 2.51171e-53 4.33565e-53 7.39854e-53 1.24798e-52 2.08069e-52 3.42854e-52 5.58314e-52 8.98424e-52 1.42852e-51 2.24419e-51 3.48314e-51 5.34059e-51 8.0888e-51 1.21012e-50 1.7881e-50 2.60946e-50 3.76081e-50 5.35254e-50 7.52256e-50 1.04395e-49 1.4305e-49 1.93542e-49 2.58543e-49 3.40997e-49 4.44045e-49 5.70903e-49 7.24705e-49 9.08311e-49 1.12408e-48 1.37364e-48 1.65765e-48 1.97555e-48 2.32548e-48 2.70408e-48 3.10655e-48 3.52673e-48 3.9573e-48 4.39008e-48 4.81644e-48 5.22776e-48 5.61591e-48 5.9737e-48 6.29534e-48 6.57671e-48 6.81559e-48 7.01175e-48 7.16679e-48 7.284e-48 7.36803e-48 7.42444e-48 7.45931e-48 7.4788e-48 7.48873e-48 7.49428e-48 7.49975e-48 7.50843e-48 7.52253e-48 7.54332e-48 7.57115e-48 7.60572e-48 7.64619e-48 7.69142e-48 7.74015e-48 7.79109e-48 7.84306e-48 7.89497e-48 7.94593e-48 7.99511e-48 8.04177e-48 8.08518e-48 8.12458e-48 8.15911e-48 8.18781e-48 8.20966e-48 8.22353e-48 8.22833e-48 8.223e-48 8.20662e-48 8.17853e-48 8.13834e-48 8.08605e-48 8.02206e-48 7.94723e-48 7.86282e-48 7.77052e-48 7.67233e-48 7.57054e-48 7.46757e-48 7.3659e-48 7.26793e-48 7.1759e-48 7.09176e-48 7.01711e-48 6.95312e-48 6.90052e-48 6.8596e-48 6.83021e-48 6.81183e-48 6.80361e-48 6.80449e-48 6.81326e-48 6.82864e-48 6.84936e-48 6.87424e-48 6.90221e-48 6.93236e-48 6.96395e-48 6.99643e-48 7.0294e-48 7.06264e-48 7.0961e-48 7.12986e-48 7.16413e-48 7.19927e-48 7.23571e-48 7.27398e-48 7.31463e-48 7.35821e-48 7.40517e-48 7.4558e-48 7.51012e-48 7.56782e-48 7.62813e-48 7.6898e-48 7.75102e-48 7.80941e-48 7.86204e-48 7.90548e-48 7.93591e-48 7.94924e-48 7.94127e-48 7.90786e-48 7.84513e-48 7.74967e-48 7.61871e-48 7.4503e-48 7.24348e-48 6.99835e-48 6.71617e-48 6.39934e-48 6.05141e-48 5.67692e-48 5.28128e-48 4.8706e-48 4.45137e-48 4.03028e-48 3.61391e-48 3.20848e-48 2.81959e-48 2.45207e-48 2.10983e-48 1.79571e-48 1.51154e-48 1.25814e-48 1.03537e-48 8.42289e-49 6.77291e-49 5.38261e-49 4.22742e-49 3.28087e-49 2.51598e-49 1.90637e-49 1.42715e-49 1.05557e-49 7.71334e-50 5.56848e-50 3.97161e-50 2.79856e-50 1.94826e-50 1.34001e-50 9.10606e-51 6.11403e-51 4.05614e-51 2.65892e-51 1.72235e-51 1.10252e-51 6.97453e-52 4.3605e-52 2.69447e-52 1.6457e-52 9.93571e-53 5.92983e-53 3.49872e-53 2.04094e-53 1.17716e-53 6.71356e-54 3.7863e-54 2.1118e-54 1.16492e-54 6.35583e-55 3.43009e-55 1.83098e-55 9.66407e-56 5.03575e-56 2.57369e-56 1.25477e-56 5.08873e-57 0 
0 1.45798e-73 4.78307e-73 1.4157e-72 4.11632e-72 1.18623e-71 3.39129e-71 9.61874e-71 2.70654e-70 7.55498e-70 2.09195e-69 5.74576e-69 1.5653e-68 4.22941e-68 1.13337e-67 3.01193e-67 7.93745e-67 2.07421e-66 5.37451e-66 1.38074e-65 3.51679e-65 8.88013e-65 2.22282e-64 5.51536e-64 1.35645e-63 3.30648e-63 7.98793e-63 1.91241e-62 4.53712e-62 1.0666e-61 2.48438e-61 5.73326e-61 1.31076e-60 2.9686e-60 6.65976e-60 1.47984e-59 3.25679e-59 7.09825e-59 1.53204e-58 3.27426e-58 6.92867e-58 1.4516e-57 3.01075e-57 6.18157e-57 1.25627e-56 2.52697e-56 5.03051e-56 9.91027e-56 1.93191e-55 3.72632e-55 7.11103e-55 1.34248e-54 2.5071e-54 4.63114e-54 8.46099e-54 1.52875e-53 2.73147e-53 4.82577e-53 8.42969e-53 1.45578e-52 2.48532e-52 4.19408e-52 6.99557e-52 1.15321e-51 1.87869e-51 3.02436e-51 4.81069e-51 7.5604e-51 1.17385e-50 1.80045e-50 2.72785e-50 4.08225e-50 6.03383e-50 8.8079e-50 1.26974e-49 1.80757e-49 2.54093e-49 3.52688e-49 4.83359e-49 6.5406e-49 8.73822e-49 1.1526e-48 1.50099e-48 1.92986e-48 2.44976e-48 3.0703e-48 3.79938e-48 4.64241e-48 5.60144e-48 6.67451e-48 7.85504e-48 9.13155e-48 1.04876e-47 1.19021e-47 1.33501e-47 1.48038e-47 1.62339e-47 1.76112e-47 1.89081e-47 2.01006e-47 2.11691e-47 2.20999e-47 2.28858e-47 2.35264e-47 2.40273e-47 2.44002e-47 2.46609e-47 2.48287e-47 2.49244e-47 2.49689e-47 2.49822e-47 2.4982e-47 2.49827e-47 2.49955e-47 2.5028e-47 2.50843e-47 2.51657e-47 2.52709e-47 2.53971e-47 2.55404e-47 2.56964e-47 2.58607e-47 2.60291e-47 2.61981e-47 2.63645e-47 2.65255e-47 2.66786e-47 2.68212e-47 2.69508e-47 2.70646e-47 2.71593e-47 2.72315e-47 2.72775e-47 2.72936e-47 2.72763e-47 2.72226e-47 2.71302e-47 2.69979e-47 2.68256e-47 2.66146e-47 2.63678e-47 2.60893e-47 2.57847e-47 2.54607e-47 2.51247e-47 2.47849e-47 2.44493e-47 2.41259e-47 2.38222e-47 2.35446e-47 2.32983e-47 2.30873e-47 2.29139e-47 2.27791e-47 2.26823e-47 2.26218e-47 2.25949e-47 2.25979e-47 2.2627e-47 2.26777e-47 2.27461e-47 2.28281e-47 2.29203e-47 2.30195e-47 2.31235e-47 2.32304e-47 2.33388e-47 2.34482e-47 2.35583e-47 2.36694e-47 2.37822e-47 2.38979e-47 2.40181e-47 2.41444e-47 2.42787e-47 2.44229e-47 2.45785e-47 2.47465e-47 2.49271e-47 2.51194e-47 2.53208e-47 2.55273e-47 2.5733e-47 2.59301e-47 2.61089e-47 2.62581e-47 2.6365e-47 2.64161e-47 2.63974e-47 2.6295e-47 2.60959e-47 2.57886e-47 2.53636e-47 2.48142e-47 2.41369e-47 2.33317e-47 2.24024e-47 2.13568e-47 2.02064e-47 1.89661e-47 1.76538e-47 1.62896e-47 1.48953e-47 1.34931e-47 1.21051e-47 1.07522e-47 9.45322e-48 8.2246e-48 7.07953e-48 6.0278e-48 5.07572e-48 4.22617e-48 3.4789e-48 2.8309e-48 2.27689e-48 1.80988e-48 1.42171e-48 1.10354e-48 8.46369e-49 6.41357e-49 4.80167e-49 3.55161e-49 2.5953e-49 1.8736e-49 1.33626e-49 9.41531e-50 6.55405e-50 4.5074e-50 3.06263e-50 2.05602e-50 1.36377e-50 8.93829e-51 5.78874e-51 3.70469e-51 2.34305e-51 1.46452e-51 9.04727e-52 5.52429e-52 3.33425e-52 1.98935e-52 1.1734e-52 6.84268e-53 3.94537e-53 2.24936e-53 1.26815e-53 7.07058e-54 3.8989e-54 2.12648e-54 1.14718e-54 6.12136e-55 3.2297e-55 1.6823e-55 8.59487e-56 4.18899e-56 1.69845e-56 0 
0 4.31545e-73 1.41609e-72 4.19263e-72 1.21945e-71 3.51535e-71 1.00533e-70 2.8524e-70 8.02896e-70 2.24199e-69 6.21025e-69 1.70634e-68 4.6503e-68 1.25698e-67 3.3697e-67 8.95859e-67 2.36185e-66 6.17455e-66 1.60057e-65 4.1137e-65 1.04823e-64 2.64803e-64 6.63138e-64 1.64617e-63 4.05047e-63 9.87811e-63 2.38754e-62 5.71888e-62 1.35745e-61 3.19274e-61 7.4405e-61 1.71795e-60 3.92968e-60 8.90463e-60 1.99874e-59 4.44372e-59 9.78496e-59 2.13383e-58 4.6081e-58 9.85393e-58 2.08638e-57 4.3736e-57 9.07646e-57 1.86462e-56 3.79166e-56 7.63132e-56 1.52008e-55 2.99637e-55 5.84456e-55 1.12798e-54 2.15382e-54 4.06857e-54 7.60256e-54 1.40517e-53 2.56871e-53 4.64388e-53 8.30213e-53 1.4676e-52 2.56504e-52 4.43218e-52 7.57078e-52 1.27828e-51 2.13325e-51 3.51843e-51 5.73476e-51 9.23642e-51 1.46988e-50 2.31109e-50 3.58985e-50 5.50843e-50 8.34911e-50 1.24993e-49 1.84813e-49 2.69873e-49 3.89167e-49 5.54166e-49 7.79203e-49 1.0818e-48 1.48291e-48 2.00695e-48 2.68164e-48 3.53753e-48 4.60714e-48 5.92369e-48 7.51948e-48 9.42379e-48 1.16606e-47 1.42461e-47 1.71862e-47 2.04742e-47 2.40892e-47 2.79953e-47 3.2141e-47 3.64611e-47 4.08781e-47 4.5306e-47 4.96545e-47 5.38336e-47 5.77589e-47 6.13564e-47 6.45668e-47 6.7349e-47 6.96818e-47 7.15649e-47 7.30173e-47 7.40756e-47 7.47901e-47 7.52209e-47 7.54329e-47 7.54913e-47 7.5458e-47 7.53873e-47 7.53244e-47 7.53034e-47 7.53476e-47 7.54694e-47 7.56725e-47 7.59529e-47 7.63017e-47 7.67064e-47 7.71534e-47 7.76288e-47 7.81198e-47 7.8615e-47 7.91044e-47 7.95794e-47 8.00321e-47 8.04549e-47 8.08398e-47 8.11782e-47 8.14605e-47 8.16761e-47 8.1814e-47 8.1863e-47 8.18126e-47 8.16538e-47 8.13796e-47 8.09862e-47 8.04735e-47 7.98453e-47 7.911e-47 7.82802e-47 7.73724e-47 7.64065e-47 7.54048e-47 7.43915e-47 7.3391e-47 7.24271e-47 7.15218e-47 7.06944e-47 6.99606e-47 6.9332e-47 6.88158e-47 6.84145e-47 6.81268e-47 6.79473e-47 6.78677e-47 6.78774e-47 6.79643e-47 6.81158e-47 6.83194e-47 6.85635e-47 6.88376e-47 6.91327e-47 6.94416e-47 6.9759e-47 7.00811e-47 7.04058e-47 7.07327e-47 7.10627e-47 7.13981e-47 7.17423e-47 7.21e-47 7.24765e-47 7.28775e-47 7.33087e-47 7.37749e-47 7.42794e-47 7.48228e-47 7.54026e-47 7.60118e-47 7.66385e-47 7.72652e-47 7.78689e-47 7.84209e-47 7.88873e-47 7.92305e-47 7.94094e-47 7.93819e-47 7.91061e-47 7.85424e-47 7.76553e-47 7.64157e-47 7.48023e-47 7.28032e-47 7.04175e-47 6.76555e-47 6.45394e-47 6.11028e-47 5.73898e-47 5.34538e-47 4.93552e-47 4.51593e-47 4.09335e-47 3.67449e-47 3.26569e-47 2.87276e-47 2.50071e-47 2.15361e-47 1.83452e-47 1.54542e-47 1.28726e-47 1.06003e-47 8.6286e-48 6.94197e-48 5.5195e-48 4.33664e-48 3.36675e-48 2.58253e-48 1.9572e-48 1.46542e-48 1.08396e-48 7.92109e-49 5.71831e-49 4.07815e-49 2.87325e-49 1.99989e-49 1.3752e-49 9.34261e-50 6.27083e-50 4.15865e-50 2.72501e-50 1.76438e-50 1.12887e-50 7.13758e-51 4.45999e-51 2.75435e-51 1.68125e-51 1.01439e-51 6.05005e-52 3.56721e-52 2.07942e-52 1.19848e-52 6.83004e-53 3.84905e-53 2.14512e-53 1.18236e-53 6.44579e-54 3.47579e-54 1.85384e-54 9.77661e-55 5.09019e-55 2.59944e-55 1.26643e-55 5.13335e-56 0 
0 1.2548e-72 4.11865e-72 1.2198e-71 3.54907e-71 1.02346e-70 2.92795e-70 8.31042e-70 2.34009e-69 6.53687e-69 1.8114e-68 4.97898e-68 1.35746e-67 3.67075e-67 9.84455e-67 2.61835e-66 6.90602e-66 1.80622e-65 4.68418e-65 1.20445e-64 3.07055e-64 7.76042e-64 1.94434e-63 4.82896e-63 1.18878e-62 2.90059e-62 7.0143e-62 1.681e-61 3.99217e-61 9.39463e-61 2.19054e-60 5.06053e-60 1.1582e-59 2.62594e-59 5.89755e-59 1.31193e-58 2.89051e-58 6.30711e-58 1.36285e-57 2.91604e-57 6.17786e-57 1.29583e-56 2.69085e-56 5.53133e-56 1.12548e-55 2.2666e-55 4.51763e-55 8.91065e-55 1.73915e-54 3.3586e-54 6.41708e-54 1.21294e-53 2.26791e-53 4.19435e-53 7.67215e-53 1.38787e-52 2.48267e-52 4.39134e-52 7.67966e-52 1.32776e-51 2.2693e-51 3.83375e-51 6.40146e-51 1.05639e-50 1.72273e-50 2.77607e-50 4.42003e-50 6.95295e-50 1.08051e-49 1.65872e-49 2.51519e-49 3.76695e-49 5.5719e-49 8.13921e-49 1.17409e-48 1.67239e-48 2.35216e-48 3.2664e-48 4.47846e-48 6.06217e-48 8.10133e-48 1.06882e-47 1.39209e-47 1.78997e-47 2.27216e-47 2.84746e-47 3.52302e-47 4.30361e-47 5.19086e-47 6.18256e-47 7.27219e-47 8.44863e-47 9.69612e-47 1.09946e-46 1.23206e-46 1.36477e-46 1.49487e-46 1.61961e-46 1.73645e-46 1.84317e-46 1.93798e-46 2.01968e-46 2.08765e-46 2.14193e-46 2.18312e-46 2.21238e-46 2.23126e-46 2.24162e-46 2.24545e-46 2.24476e-46 2.24141e-46 2.23708e-46 2.23314e-46 2.23061e-46 2.2302e-46 2.23229e-46 2.23697e-46 2.24411e-46 2.25345e-46 2.26458e-46 2.2771e-46 2.29056e-46 2.30459e-46 2.31881e-46 2.33294e-46 2.34669e-46 2.35984e-46 2.37215e-46 2.38338e-46 2.39326e-46 2.40153e-46 2.40785e-46 2.41192e-46 2.41338e-46 2.41195e-46 2.40733e-46 2.39934e-46 2.38785e-46 2.37286e-46 2.35448e-46 2.33296e-46 2.30867e-46 2.28208e-46 2.25379e-46 2.22444e-46 2.19476e-46 2.16545e-46 2.13721e-46 2.1107e-46 2.08647e-46 2.06498e-46 2.04659e-46 2.03149e-46 2.01976e-46 2.01135e-46 2.00612e-46 2.00381e-46 2.00411e-46 2.00666e-46 2.01111e-46 2.01707e-46 2.02421e-46 2.03221e-46 2.04083e-46 2.04985e-46 2.05911e-46 2.0685e-46 2.07798e-46 2.08751e-46 2.09714e-46 2.10694e-46 2.117e-46 2.12746e-46 2.13849e-46 2.15025e-46 2.16293e-46 2.17666e-46 2.19155e-46 2.20763e-46 2.22482e-46 2.24295e-46 2.26166e-46 2.28045e-46 2.29865e-46 2.31542e-46 2.32978e-46 2.34061e-46 2.3467e-46 2.3468e-46 2.33967e-46 2.32412e-46 2.29908e-46 2.26366e-46 2.21719e-46 2.1593e-46 2.08991e-46 2.00929e-46 1.91807e-46 1.8172e-46 1.70798e-46 1.59195e-46 1.4709e-46 1.34676e-46 1.22155e-46 1.09725e-46 9.75777e-47 8.58874e-47 7.48056e-47 6.44562e-47 5.49328e-47 4.6297e-47 3.85793e-47 3.17811e-47 2.58785e-47 2.08263e-47 1.65632e-47 1.30166e-47 1.01074e-47 7.75423e-48 5.87731e-48 4.4009e-48 3.25548e-48 2.37899e-48 1.71738e-48 1.22473e-48 8.62816e-49 6.00486e-49 4.12862e-49 2.80438e-49 1.88197e-49 1.2478e-49 8.17448e-50 5.29142e-50 3.38457e-50 2.13934e-50 1.33636e-50 8.2502e-51 5.03414e-51 3.03624e-51 1.81019e-51 1.0669e-51 6.21667e-52 3.58148e-52 2.04018e-52 1.14923e-52 6.40189e-53 3.52701e-53 1.9219e-53 1.03586e-53 5.52221e-54 2.91085e-54 1.51481e-54 7.7322e-55 3.76553e-55 1.52587e-55 0 
0 3.61615e-72 1.18725e-71 3.51738e-71 1.02375e-70 2.95329e-70 8.45197e-70 2.39982e-69 6.7601e-69 1.88912e-68 5.23689e-68 1.44004e-67 3.92774e-67 1.06255e-66 2.85086e-66 7.58573e-66 2.00166e-65 5.23755e-65 1.35891e-64 3.49582e-64 8.91622e-64 2.25455e-63 5.65147e-63 1.4043e-62 3.4588e-62 8.44374e-62 2.04296e-61 4.89863e-61 1.16399e-60 2.74068e-60 6.39397e-60 1.47795e-59 3.38449e-59 7.67795e-59 1.72538e-58 3.84043e-58 8.46647e-58 1.8485e-57 3.99669e-57 8.55683e-57 1.81395e-56 3.8072e-56 7.91078e-56 1.62717e-55 3.31296e-55 6.67622e-55 1.33151e-54 2.62798e-54 5.13249e-54 9.91809e-54 1.89621e-53 3.58646e-53 6.71013e-53 1.24178e-52 2.27286e-52 4.11411e-52 7.36408e-52 1.30336e-51 2.28073e-51 3.94559e-51 6.74749e-51 1.14058e-50 1.90559e-50 3.14641e-50 5.13389e-50 8.27731e-50 1.31858e-49 2.07523e-49 3.22652e-49 4.95539e-49 7.51734e-49 1.12632e-48 1.66666e-48 2.43548e-48 3.5144e-48 5.00751e-48 7.04488e-48 9.78556e-48 1.34196e-47 1.81686e-47 2.42837e-47 3.20416e-47 4.1736e-47 5.36666e-47 6.81234e-47 8.53682e-47 1.05613e-46 1.28996e-46 1.55562e-46 1.85239e-46 2.17826e-46 2.5298e-46 2.90222e-46 3.28943e-46 3.6843e-46 4.07889e-46 4.46494e-46 4.83424e-46 5.17915e-46 5.49302e-46 5.77058e-46 6.00827e-46 6.20437e-46 6.35907e-46 6.47435e-46 6.55377e-46 6.60214e-46 6.62512e-46 6.62878e-46 6.6192e-46 6.60209e-46 6.58245e-46 6.56443e-46 6.55114e-46 6.54465e-46 6.54609e-46 6.55572e-46 6.57315e-46 6.5975e-46 6.62759e-46 6.66213e-46 6.6998e-46 6.7394e-46 6.77984e-46 6.82019e-46 6.85964e-46 6.89747e-46 6.93296e-46 6.96541e-46 6.99404e-46 7.01802e-46 7.03642e-46 7.04828e-46 7.05263e-46 7.04857e-46 7.03528e-46 7.01219e-46 6.97894e-46 6.93551e-46 6.88223e-46 6.8198e-46 6.7493e-46 6.67213e-46 6.58999e-46 6.5048e-46 6.41861e-46 6.3335e-46 6.25153e-46 6.17456e-46 6.10423e-46 6.0419e-46 5.98854e-46 5.94476e-46 5.91078e-46 5.88645e-46 5.87133e-46 5.86468e-46 5.8656e-46 5.87306e-46 5.88596e-46 5.90326e-46 5.92394e-46 5.94713e-46 5.97207e-46 5.99815e-46 6.02493e-46 6.05209e-46 6.07947e-46 6.10704e-46 6.13489e-46 6.16323e-46 6.19236e-46 6.2227e-46 6.25472e-46 6.28894e-46 6.32587e-46 6.36597e-46 6.40954e-46 6.45671e-46 6.5073e-46 6.56077e-46 6.61617e-46 6.67205e-46 6.72648e-46 6.77705e-46 6.82087e-46 6.85472e-46 6.87504e-46 6.87817e-46 6.86043e-46 6.81827e-46 6.74852e-46 6.64847e-46 6.51608e-46 6.35012e-46 6.15026e-46 5.91719e-46 5.65261e-46 5.35925e-46 5.04079e-46 4.70176e-46 4.34736e-46 3.98327e-46 3.61539e-46 3.24966e-46 2.89174e-46 2.54683e-46 2.21949e-46 1.91346e-46 1.63156e-46 1.37571e-46 1.14687e-46 9.45143e-47 7.69873e-47 6.19765e-47 4.93034e-47 3.87552e-47 3.00991e-47 2.30952e-47 1.75071e-47 1.31103e-47 9.69856e-48 7.08745e-48 5.11631e-48 3.64846e-48 2.5701e-48 1.78849e-48 1.2295e-48 8.35e-49 5.60244e-49 3.71379e-49 2.43234e-49 1.57406e-49 1.00653e-49 6.36021e-50 3.97168e-50 2.45111e-50 1.49509e-50 9.01389e-51 5.37193e-51 3.16483e-51 1.84333e-51 1.0615e-51 6.04411e-52 3.40308e-52 1.89484e-52 1.04344e-52 5.68306e-53 3.06156e-53 1.63132e-53 8.59474e-54 4.47051e-54 2.28085e-54 1.11029e-54 4.49772e-55 0 
0 1.03383e-71 3.39519e-71 1.00621e-70 2.92966e-70 8.45444e-70 2.42046e-69 6.87519e-69 1.93744e-68 5.41632e-68 1.50209e-67 4.13214e-67 1.12752e-66 3.05153e-66 8.19093e-66 2.18045e-65 5.75619e-65 1.50686e-64 3.91146e-64 1.00671e-63 2.56891e-63 6.49894e-63 1.6299e-62 4.05211e-62 9.98558e-62 2.439e-61 5.90432e-61 1.41651e-60 3.36771e-60 7.93389e-60 1.85202e-59 4.28334e-59 9.81456e-59 2.22781e-58 5.0093e-58 1.11567e-57 2.46106e-57 5.37659e-57 1.16321e-56 2.49197e-56 5.28605e-56 1.11017e-55 2.30824e-55 4.7509e-55 9.67922e-55 1.95181e-54 3.89526e-54 7.69306e-54 1.50346e-53 2.90722e-53 5.56187e-53 1.05265e-52 1.97077e-52 3.6495e-52 6.68408e-52 1.21067e-51 2.16843e-51 3.84029e-51 6.72428e-51 1.164e-50 1.9918e-50 3.36891e-50 5.63179e-50 9.30422e-50 1.51899e-49 2.45037e-49 3.90551e-49 6.14977e-49 9.56619e-49 1.46989e-48 2.23083e-48 3.34388e-48 4.95002e-48 7.23615e-48 1.04454e-47 1.48879e-47 2.09514e-47 2.91097e-47 3.99291e-47 5.40697e-47 7.22797e-47 9.53821e-47 1.24251e-46 1.59776e-46 2.02816e-46 2.54146e-46 3.14388e-46 3.83943e-46 4.6293e-46 5.51117e-46 6.47883e-46 7.52189e-46 8.62582e-46 9.77228e-46 1.09398e-45 1.21045e-45 1.32418e-45 1.4327e-45 1.53376e-45 1.62536e-45 1.70597e-45 1.77455e-45 1.83061e-45 1.87425e-45 1.90609e-45 1.92723e-45 1.93915e-45 1.94356e-45 1.9423e-45 1.93721e-45 1.92998e-45 1.92215e-45 1.91493e-45 1.90926e-45 1.90576e-45 1.90475e-45 1.90631e-45 1.91031e-45 1.91648e-45 1.92446e-45 1.93386e-45 1.94427e-45 1.95533e-45 1.96672e-45 1.97814e-45 1.98935e-45 2.00014e-45 2.01029e-45 2.01959e-45 2.02781e-45 2.03471e-45 2.04002e-45 2.04346e-45 2.04474e-45 2.0436e-45 2.03981e-45 2.03319e-45 2.02364e-45 2.01116e-45 1.99584e-45 1.97788e-45 1.95758e-45 1.93536e-45 1.91171e-45 1.88717e-45 1.86234e-45 1.83783e-45 1.81422e-45 1.79206e-45 1.77181e-45 1.75387e-45 1.73852e-45 1.72593e-45 1.71616e-45 1.70918e-45 1.70484e-45 1.70295e-45 1.70323e-45 1.70538e-45 1.7091e-45 1.71408e-45 1.72003e-45 1.72669e-45 1.73385e-45 1.74133e-45 1.74901e-45 1.7568e-45 1.76465e-45 1.77255e-45 1.78054e-45 1.78867e-45 1.79705e-45 1.80577e-45 1.815e-45 1.82487e-45 1.83555e-45 1.84717e-45 1.85982e-45 1.87355e-45 1.88832e-45 1.90398e-45 1.92027e-45 1.93676e-45 1.95293e-45 1.96806e-45 1.98133e-45 1.99181e-45 1.99848e-45 2.00024e-45 1.99604e-45 1.98482e-45 1.96565e-45 1.9377e-45 1.90035e-45 1.85322e-45 1.79617e-45 1.72937e-45 1.65327e-45 1.56865e-45 1.47656e-45 1.37828e-45 1.27534e-45 1.16937e-45 1.06212e-45 9.5533e-46 8.50664e-46 7.49669e-46 6.537e-46 5.63875e-46 4.81052e-46 4.05809e-46 3.38453e-46 2.79032e-46 2.27368e-46 1.83094e-46 1.45695e-46 1.14551e-46 8.89833e-47 6.82882e-47 5.17713e-47 3.87726e-47 2.8684e-47 2.09617e-47 1.51316e-47 1.07898e-47 7.60007e-48 5.28815e-48 3.63481e-48 2.46812e-48 1.65566e-48 1.09727e-48 7.18476e-49 4.64826e-49 2.97146e-49 1.87705e-49 1.17174e-49 7.22883e-50 4.40768e-50 2.65636e-50 1.58245e-50 9.319e-51 5.42544e-51 3.12291e-51 1.77736e-51 1.00026e-51 5.56682e-52 3.06401e-52 1.66799e-52 8.98128e-53 4.78318e-53 2.51878e-53 1.30947e-53 6.67766e-54 3.2492e-54 1.31582e-54 0 
0 2.93229e-71 9.63262e-71 2.85572e-70 8.3177e-70 2.40123e-69 6.8772e-69 1.95419e-68 5.5091e-68 1.54075e-67 4.27467e-67 1.17643e-66 3.21144e-66 8.69528e-66 2.33503e-65 6.21875e-65 1.64245e-64 4.30165e-64 1.11714e-63 2.87665e-63 7.3442e-63 1.85891e-62 4.66445e-62 1.16024e-61 2.86068e-61 6.99104e-61 1.69331e-60 4.06471e-60 9.66917e-60 2.27923e-59 5.32353e-59 1.23195e-58 2.82449e-58 6.41519e-58 1.44335e-57 3.21661e-57 7.09998e-57 1.55209e-56 3.36004e-56 7.20293e-56 1.5289e-55 3.21306e-55 6.68493e-55 1.37683e-54 2.80694e-54 5.66398e-54 1.13113e-53 2.23545e-53 4.3717e-53 8.45918e-53 1.61944e-52 3.06705e-52 5.74595e-52 1.06475e-51 1.9514e-51 3.53685e-51 6.33899e-51 1.12336e-50 1.96825e-50 3.40926e-50 5.83745e-50 9.87943e-50 1.65253e-49 2.73172e-49 4.46229e-49 7.2024e-49 1.14857e-48 1.80952e-48 2.81619e-48 4.32929e-48 6.5735e-48 9.85756e-48 1.45984e-47 2.13487e-47 3.08279e-47 4.39537e-47 6.18732e-47 8.59889e-47 1.17977e-46 1.59789e-46 2.13638e-46 2.81957e-46 3.67327e-46 4.72371e-46 5.9962e-46 7.51344e-46 9.29357e-46 1.13482e-45 1.36802e-45 1.62825e-45 1.91358e-45 2.2209e-45 2.54583e-45 2.88287e-45 3.22561e-45 3.56697e-45 3.89957e-45 4.21617e-45 4.51003e-45 4.77536e-45 5.00761e-45 5.2038e-45 5.36259e-45 5.48437e-45 5.57111e-45 5.62617e-45 5.65401e-45 5.65981e-45 5.64908e-45 5.62733e-45 5.59967e-45 5.57059e-45 5.54376e-45 5.52194e-45 5.50694e-45 5.49972e-45 5.50046e-45 5.50877e-45 5.52383e-45 5.54455e-45 5.56972e-45 5.59815e-45 5.62873e-45 5.66046e-45 5.69249e-45 5.72409e-45 5.75459e-45 5.78337e-45 5.8098e-45 5.83322e-45 5.85292e-45 5.86811e-45 5.87799e-45 5.88173e-45 5.87856e-45 5.86783e-45 5.84902e-45 5.82183e-45 5.78625e-45 5.74253e-45 5.69126e-45 5.6333e-45 5.56983e-45 5.50225e-45 5.43214e-45 5.3612e-45 5.29117e-45 5.22371e-45 5.16039e-45 5.10257e-45 5.05134e-45 5.00752e-45 4.9716e-45 4.94376e-45 4.92387e-45 4.91154e-45 4.90618e-45 4.90702e-45 4.91321e-45 4.92385e-45 4.93806e-45 4.95502e-45 4.97399e-45 4.99438e-45 5.01567e-45 5.03752e-45 5.05967e-45 5.082e-45 5.10448e-45 5.12721e-45 5.15037e-45 5.17423e-45 5.19913e-45 5.22549e-45 5.25377e-45 5.2844e-45 5.3178e-45 5.35428e-45 5.39396e-45 5.43676e-45 5.48229e-45 5.5298e-45 5.57816e-45 5.6258e-45 5.67075e-45 5.71066e-45 5.74283e-45 5.76431e-45 5.772e-45 5.76275e-45 5.73353e-45 5.68153e-45 5.60433e-45 5.50006e-45 5.36747e-45 5.20609e-45 5.01627e-45 4.79926e-45 4.55717e-45 4.29296e-45 4.01034e-45 3.71364e-45 3.40764e-45 3.09735e-45 2.78787e-45 2.4841e-45 2.19057e-45 1.9113e-45 1.6496e-45 1.40804e-45 1.18839e-45 9.91579e-46 8.17821e-46 6.66641e-46 5.37002e-46 4.27432e-46 3.36144e-46 2.61168e-46 2.0046e-46 1.51993e-46 1.1384e-46 8.42227e-47 6.15491e-47 4.44293e-47 3.16792e-47 2.2312e-47 1.55229e-47 1.06681e-47 7.24259e-48 4.85746e-48 3.21848e-48 2.10688e-48 1.36269e-48 8.70855e-49 5.49935e-49 3.43178e-49 2.1164e-49 1.28996e-49 7.77107e-50 4.62748e-50 2.72394e-50 1.58516e-50 9.12011e-51 5.18816e-51 2.91841e-51 1.62342e-51 8.93098e-52 4.85942e-52 2.61522e-52 1.39208e-52 7.32676e-53 3.80711e-53 1.94048e-53 9.43775e-54 3.82076e-54 0 
0 8.25101e-71 2.71125e-70 8.04068e-70 2.34283e-69 6.76604e-69 1.93857e-68 5.51071e-68 1.55417e-67 4.34839e-67 1.20693e-66 3.32299e-66 9.07516e-66 2.45828e-65 6.60446e-65 1.75974e-64 4.64989e-64 1.21841e-63 3.16578e-63 8.15595e-63 2.08331e-62 5.27583e-62 1.32453e-61 3.29639e-61 8.13198e-61 1.98842e-60 4.8189e-60 1.15741e-59 2.75484e-59 6.49756e-59 1.51851e-58 3.5162e-58 8.06649e-58 1.83325e-57 4.12722e-57 9.20361e-57 2.0328e-56 4.44665e-56 9.63261e-56 2.0663e-55 4.38886e-55 9.22959e-55 1.92156e-54 3.96032e-54 8.07939e-54 1.63141e-53 3.26026e-53 6.4477e-53 1.2618e-52 2.44324e-52 4.6806e-52 8.87069e-52 1.66301e-51 3.08376e-51 5.65552e-51 1.02573e-50 1.83962e-50 3.26225e-50 5.71953e-50 9.91335e-50 1.69848e-49 2.87634e-49 4.81418e-49 7.96288e-49 1.3015e-48 2.10189e-48 3.35375e-48 5.28649e-48 8.23167e-48 1.26607e-47 1.92327e-47 2.8854e-47 4.27487e-47 6.25404e-47 9.03424e-47 1.28851e-46 1.81438e-46 2.52224e-46 3.46134e-46 4.68902e-46 6.27029e-46 8.27652e-46 1.07834e-45 1.38678e-45 1.76036e-45 2.2057e-45 2.72805e-45 3.33071e-45 4.01443e-45 4.77691e-45 5.61239e-45 6.51146e-45 7.46108e-45 8.44493e-45 9.44394e-45 1.04372e-44 1.14029e-44 1.23197e-44 1.31679e-44 1.39305e-44 1.45943e-44 1.51508e-44 1.55964e-44 1.59325e-44 1.61652e-44 1.63048e-44 1.63646e-44 1.63602e-44 1.63081e-44 1.62245e-44 1.61247e-44 1.6022e-44 1.59271e-44 1.58482e-44 1.57905e-44 1.57569e-44 1.57477e-44 1.57619e-44 1.57968e-44 1.58492e-44 1.59155e-44 1.59921e-44 1.60757e-44 1.61632e-44 1.62522e-44 1.63404e-44 1.64259e-44 1.65068e-44 1.65813e-44 1.66475e-44 1.67032e-44 1.67463e-44 1.67745e-44 1.67853e-44 1.67766e-44 1.67465e-44 1.66935e-44 1.66167e-44 1.6516e-44 1.63923e-44 1.62471e-44 1.6083e-44 1.59031e-44 1.57116e-44 1.55129e-44 1.53118e-44 1.51133e-44 1.49221e-44 1.47427e-44 1.45788e-44 1.44337e-44 1.43097e-44 1.4208e-44 1.41293e-44 1.40731e-44 1.40383e-44 1.40233e-44 1.40258e-44 1.40434e-44 1.40736e-44 1.41138e-44 1.41618e-44 1.42154e-44 1.4273e-44 1.43331e-44 1.43948e-44 1.44573e-44 1.45202e-44 1.45837e-44 1.46478e-44 1.47132e-44 1.47807e-44 1.48512e-44 1.49259e-44 1.50062e-44 1.50934e-44 1.51887e-44 1.52931e-44 1.54069e-44 1.553e-44 1.56614e-44 1.5799e-44 1.59397e-44 1.60791e-44 1.62117e-44 1.63307e-44 1.64286e-44 1.64968e-44 1.65266e-44 1.65087e-44 1.64345e-44 1.62956e-44 1.60849e-44 1.57968e-44 1.54274e-44 1.4975e-44 1.44404e-44 1.38268e-44 1.31399e-44 1.23881e-44 1.15818e-44 1.07334e-44 9.85654e-45 8.96575e-45 8.07572e-45 7.20072e-45 6.35403e-45 5.54738e-45 4.7906e-45 4.0913e-45 3.45476e-45 2.88393e-45 2.37955e-45 1.94039e-45 1.56356e-45 1.24488e-45 9.79245e-46 7.60981e-46 5.84184e-46 4.42995e-46 3.31822e-46 2.45505e-46 1.79414e-46 1.29507e-46 9.23362e-47 6.50276e-47 4.52354e-47 3.10832e-47 2.10986e-47 1.41474e-47 9.37167e-48 6.13327e-48 3.96575e-48 2.53361e-48 1.59942e-48 9.97743e-49 6.15087e-49 3.74754e-49 2.25671e-49 1.34325e-49 7.90352e-50 4.59727e-50 2.64379e-50 1.50326e-50 8.45193e-51 4.69921e-51 2.5839e-51 1.4052e-51 7.55852e-52 4.02128e-52 2.11536e-52 1.0986e-52 5.59672e-53 2.7208e-53 1.10112e-53 0 
0 2.30318e-70 7.57036e-70 2.24592e-69 6.54644e-69 1.89133e-68 5.42108e-68 1.54166e-67 4.34967e-67 1.2175e-66 3.38071e-66 9.31208e-66 2.54428e-65 6.89508e-65 1.85331e-64 4.94042e-64 1.30607e-63 3.42399e-63 8.90091e-63 2.2943e-62 5.86345e-62 1.48566e-61 3.73184e-61 9.29259e-61 2.29369e-60 5.61167e-60 1.36075e-59 3.27017e-59 7.7882e-59 1.83802e-58 4.29816e-58 9.95874e-58 2.28605e-57 5.19874e-57 1.17114e-56 2.61332e-56 5.77579e-56 1.26426e-55 2.74055e-55 5.88275e-55 1.25035e-54 2.63124e-54 5.48188e-54 1.1306e-53 2.30812e-53 4.66389e-53 9.32696e-53 1.84586e-52 3.61484e-52 7.00444e-52 1.34281e-51 2.54669e-51 4.7777e-51 8.86557e-51 1.62705e-50 2.95299e-50 5.29972e-50 9.40449e-50 1.64994e-49 2.86164e-49 4.90611e-49 8.31369e-49 1.39235e-48 2.30442e-48 3.76873e-48 6.08994e-48 9.72248e-48 1.53338e-47 2.3889e-47 3.67608e-47 5.58697e-47 8.3857e-47 1.24292e-46 1.81909e-46 2.62875e-46 3.75055e-46 5.28287e-46 7.34598e-46 1.00835e-45 1.36629e-45 1.82735e-45 2.41235e-45 3.14332e-45 4.0426e-45 5.13167e-45 6.42964e-45 7.95161e-45 9.7069e-45 1.16973e-44 1.39157e-44 1.63448e-44 1.89564e-44 2.17121e-44 2.45635e-44 2.74545e-44 3.03237e-44 3.31071e-44 3.57425e-44 3.81722e-44 4.03471e-44 4.22292e-44 4.37943e-44 4.50326e-44 4.59493e-44 4.65633e-44 4.69054e-44 4.70156e-44 4.69402e-44 4.67277e-44 4.64266e-44 4.60813e-44 4.57311e-44 4.54075e-44 4.51342e-44 4.49265e-44 4.47923e-44 4.47329e-44 4.47444e-44 4.48193e-44 4.49478e-44 4.5119e-44 4.53225e-44 4.55481e-44 4.57871e-44 4.60318e-44 4.62758e-44 4.65133e-44 4.67387e-44 4.6947e-44 4.71324e-44 4.7289e-44 4.74104e-44 4.749e-44 4.75211e-44 4.74974e-44 4.74135e-44 4.72652e-44 4.70501e-44 4.67679e-44 4.64206e-44 4.60128e-44 4.55515e-44 4.5046e-44 4.45076e-44 4.39489e-44 4.33836e-44 4.28254e-44 4.22879e-44 4.17835e-44 4.13231e-44 4.09155e-44 4.0567e-44 4.02817e-44 4.00609e-44 3.99034e-44 3.98062e-44 3.97644e-44 3.97719e-44 3.98216e-44 3.99065e-44 4.00195e-44 4.01541e-44 4.03045e-44 4.04657e-44 4.0634e-44 4.08065e-44 4.09813e-44 4.11575e-44 4.1335e-44 4.15146e-44 4.16979e-44 4.1887e-44 4.20849e-44 4.22952e-44 4.25216e-44 4.27679e-44 4.30377e-44 4.33338e-44 4.36578e-44 4.40093e-44 4.43856e-44 4.47812e-44 4.51876e-44 4.55925e-44 4.59805e-44 4.63329e-44 4.6628e-44 4.6842e-44 4.69494e-44 4.69242e-44 4.67411e-44 4.63762e-44 4.58085e-44 4.50211e-44 4.40021e-44 4.27459e-44 4.12535e-44 3.95332e-44 3.76008e-44 3.5479e-44 3.31973e-44 3.07904e-44 2.82974e-44 2.57598e-44 2.32198e-44 2.07186e-44 1.82946e-44 1.59822e-44 1.38101e-44 1.18006e-44 9.96971e-45 8.32627e-45 6.87293e-45 5.60658e-45 4.51926e-45 3.5992e-45 2.83189e-45 2.20114e-45 1.69002e-45 1.28172e-45 9.60146e-46 7.10414e-46 5.19172e-46 3.74745e-46 2.6717e-46 1.88136e-46 1.30857e-46 8.99034e-47 6.1013e-47 4.09028e-47 2.70887e-47 1.77234e-47 1.14565e-47 7.31698e-48 4.61751e-48 2.87944e-48 1.77445e-48 1.08069e-48 6.50504e-49 3.8703e-49 2.27623e-49 1.32341e-49 7.60708e-50 4.3233e-50 2.42953e-50 1.35012e-50 7.41992e-51 4.03306e-51 2.16822e-51 1.15292e-51 6.06157e-52 3.14636e-52 1.60206e-52 7.7847e-53 3.14945e-53 0 