# vtk DataFile Version 3.0
Gray-Scott Simulation Output
ASCII
DATASET STRUCTURED_POINTS
DIMENSIONS 256 256 1
SPACING 1.0 1.0 1.0
ORIGIN 0 0 0
POINT_DATA 65536
SCALARS u double
LOOKUP_TABLE default
0 0 0 0 0 0 0 0 0 0 0 0 0 0 0 0 0 0 0 0 0 0 0 0 0 0 0 0 0 0 0 0 0 0 0 0 0 0 0 0 0 0 0 0 0 0 0 0 0 0 0 0 0 0 0 0 0 0 0 0 0 0 0 0 0 0 0 0 0 0 0 0 0 0 0 0 0 0 0 0 0 0 0 0 0 0 0 0 0 0 0 0 0 0 0 0 0 0 0 0 0 0 0 0 0 0 0 0 0 0 0 0 0 0 0 0 0 0 0 0 0 0 0 0 0 0 0 0 0 0 0 0 0 0 0 0 0 0 0 0 0 0 0 0 0 0 0 0 0 0 0 0 0 0 0 0 0 0 0 0 0 0 0 0 0 0 0 0 0 0 0 0 0 0 0 0 0 0 0 0 0 0 0 0 0 0 0 0 0 0 0 0 0 0 0 0 0 0 0 0 0 0 0 0 0 0 0 0 0 0 0 0 0 0 0 0 0 0 0 0 0 0 0 0 0 0 0 0 0 0 0 0 0 0 0 0 0 0 0 0 0 0 0 0 0 0 0 0 0 0 0 0 0 0 0 0 
0 9.19056e-159 1.3383e-157 1.91938e-156 2.72332e-155 3.82236e-154 5.30658e-153 7.28623e-152 9.89348e-151 1.32833e-149 1.76328e-148 2.31392e-147 3.00149e-146 3.84798e-145 4.87509e-144 6.10286e-143 7.54793e-142 9.22169e-141 1.11281e-139 1.32619e-138 1.56061e-137 1.81314e-136 2.07946e-135 2.3539e-134 2.62951e-133 2.8983e-132 3.15154e-131 3.38019e-130 3.57539e-129 3.72902e-128 3.83423e-127 3.88589e-126 3.88108e-125 3.81926e-124 3.7024e-123 3.53488e-122 3.32325e-121 3.07578e-120 2.80189e-119 2.51161e-118 2.21491e-117 1.92113e-116 1.6385e-115 1.37375e-114 1.13196e-113 9.16408e-113 7.28725e-112 5.69017e-111 4.36156e-110 3.28077e-109 2.42096e-108 1.75199e-107 1.24295e-106 8.6417e-106 5.88579e-105 3.92557e-104 2.56282e-103 1.63707e-102 1.02274e-101 6.24618e-101 3.72745e-100 2.17242e-99 1.23592e-98 6.86002e-98 3.71282e-97 1.9583e-96 1.00598e-95 5.02993e-95 2.44632e-94 1.1565e-93 5.31065e-93 2.36698e-92 1.02317e-91 4.28592e-91 1.73826e-90 6.81976e-90 2.58579e-89 9.46581e-89 3.34204e-88 1.1368e-87 3.72116e-87 1.17079e-86 3.53627e-86 1.02404e-85 2.83925e-85 7.5267e-85 1.90499e-84 4.59651e-84 1.05575e-83 2.30479e-83 4.77523e-83 9.37598e-83 1.74221e-82 3.05988e-82 5.07421e-82 7.9387e-82 1.17127e-81 1.6297e-81 2.13979e-81 2.65477e-81 3.11907e-81 3.48121e-81 3.70641e-81 3.78413e-81 3.72818e-81 3.57069e-81 3.35352e-81 3.12073e-81 2.91394e-81 2.76969e-81 2.71736e-81 2.77613e-81 2.95118e-81 3.23048e-81 3.58425e-81 3.96869e-81 4.3339e-81 4.63431e-81 4.8384e-81 4.93474e-81 4.93263e-81 4.85773e-81 4.7446e-81 4.62878e-81 4.54039e-81 4.50014e-81 4.51747e-81 4.59054e-81 4.70793e-81 4.85229e-81 5.00545e-81 5.1534e-81 5.28897e-81 5.41079e-81 5.5189e-81 5.6094e-81 5.67129e-81 5.6878e-81 5.64177e-81 5.5229e-81 5.33292e-81 5.08626e-81 4.80594e-81 4.51665e-81 4.23832e-81 3.98212e-81 3.7502e-81 3.53849e-81 3.34157e-81 3.15809e-81 2.99442e-81 2.86492e-81 2.78785e-81 2.77815e-81 2.84004e-81 2.96294e-81 3.12307e-81 3.29013e-81 3.43613e-81 3.54255e-81 3.60301e-81 3.62156e-81 3.60847e-81 3.57642e-81 3.53863e-81 3.50881e-81 3.50117e-81 3.52889e-81 3.60036e-81 3.71471e-81 3.85908e-81 4.0097e-81 4.13704e-81 4.21347e-81 4.22078e-81 4.1553e-81 4.02966e-81 3.87087e-81 3.7154e-81 3.60241e-81 3.5665e-81 3.63147e-81 3.80612e-81 4.0825e-81 4.43651e-81 4.83077e-81 5.21972e-81 5.55675e-81 5.80238e-81 5.93123e-81 5.93554e-81 5.8235e-81 5.61302e-81 5.32358e-81 4.96998e-81 4.56056e-81 4.10034e-81 3.59656e-81 3.06319e-81 2.52194e-81 1.99929e-81 1.52124e-81 1.10811e-81 7.71148e-82 5.11869e-82 3.23677e-82 1.94813e-82 1.11543e-82 6.07419e-83 3.14625e-83 1.55062e-83 7.27556e-84 3.25239e-84 1.38644e-84 5.64144e-85 2.1935e-85 8.15877e-86 2.90636e-86 9.92675e-87 3.25458e-87 1.02542e-87 3.10814e-88 9.07324e-89 2.55349e-89 6.93512e-90 1.81945e-90 4.61527e-91 1.13296e-91 2.69377e-92 6.20863e-93 1.38823e-93 3.01362e-94 6.35607e-95 1.30336e-95 2.60019e-96 5.04995e-97 9.55381e-98 1.76169e-98 3.16802e-99 5.55889e-100 9.52263e-101 1.59335e-101 2.60529e-102 4.16482e-103 6.51213e-104 9.96375e-105 1.49236e-105 2.18902e-106 3.1457e-107 4.43033e-108 6.11732e-109 8.28406e-110 1.10059e-110 1.43465e-111 1.80825e-112 0 
0 1.33848e-157 1.94794e-156 2.79209e-155 3.95927e-154 5.55388e-153 7.70601e-152 1.05747e-150 1.43504e-149 1.92561e-148 2.55468e-147 3.35055e-146 4.34365e-145 5.56548e-144 7.04703e-143 8.81677e-142 1.08983e-140 1.33074e-139 1.60495e-138 1.9116e-137 2.24825e-136 2.61058e-135 2.99236e-134 3.38538e-133 3.77965e-132 4.16369e-131 4.52498e-130 4.85059e-129 5.12787e-128 5.34527e-127 5.49305e-126 5.56402e-125 5.55409e-124 5.46264e-123 5.29261e-122 5.05041e-121 4.74549e-120 4.38973e-119 3.9967e-118 3.58072e-117 3.15604e-116 2.73598e-115 2.33223e-114 1.95436e-113 1.60952e-112 1.30236e-111 1.03509e-110 8.07819e-110 6.18879e-109 4.65283e-108 3.43168e-107 2.48215e-106 1.76007e-105 1.22309e-104 8.32616e-104 5.55042e-103 3.6218e-102 2.31239e-101 1.44393e-100 8.81422e-100 5.2574e-99 3.06263e-98 1.74155e-97 9.66193e-97 5.22684e-96 2.75557e-95 1.41489e-94 7.07125e-94 3.43757e-93 1.62439e-92 7.4559e-92 3.32168e-91 1.43523e-90 6.00944e-90 2.43626e-89 9.55425e-89 3.62113e-88 1.32506e-87 4.67648e-87 1.5901e-86 5.20301e-86 1.63642e-85 4.94091e-85 1.4303e-84 3.96432e-84 1.05058e-83 2.65816e-83 6.41189e-83 1.47229e-82 3.21329e-82 6.65586e-82 1.30655e-81 2.42727e-81 4.26226e-81 7.06697e-81 1.10549e-80 1.63085e-80 2.26897e-80 2.97898e-80 3.69586e-80 4.34228e-80 4.84665e-80 5.16056e-80 5.2693e-80 5.19206e-80 4.97349e-80 4.67178e-80 4.34827e-80 4.06081e-80 3.86027e-80 3.78751e-80 3.86923e-80 4.11262e-80 4.50095e-80 4.99283e-80 5.52737e-80 6.03521e-80 6.45301e-80 6.73695e-80 6.87113e-80 6.86846e-80 6.7646e-80 6.60759e-80 6.4468e-80 6.3241e-80 6.26827e-80 6.29243e-80 6.394e-80 6.55712e-80 6.75769e-80 6.97049e-80 7.17605e-80 7.3644e-80 7.53366e-80 7.68384e-80 7.80954e-80 7.8955e-80 7.9184e-80 7.85443e-80 7.68924e-80 7.42522e-80 7.08239e-80 6.69266e-80 6.29036e-80 5.90315e-80 5.54661e-80 5.22375e-80 4.92893e-80 4.65467e-80 4.39909e-80 4.17108e-80 3.99064e-80 3.88319e-80 3.86955e-80 3.95559e-80 4.12663e-80 4.34959e-80 4.58228e-80 4.78575e-80 4.93415e-80 5.0186e-80 5.04466e-80 5.02662e-80 4.98215e-80 4.92964e-80 4.88816e-80 4.87751e-80 4.91603e-80 5.01539e-80 5.1744e-80 5.37518e-80 5.58466e-80 5.76182e-80 5.86823e-80 5.87854e-80 5.78766e-80 5.61313e-80 5.39248e-80 5.17641e-80 5.01938e-80 4.96949e-80 5.0598e-80 5.30254e-80 5.68667e-80 6.17868e-80 6.72662e-80 7.26716e-80 7.73556e-80 8.07694e-80 8.25606e-80 8.26211e-80 8.10643e-80 7.81385e-80 7.41139e-80 6.91954e-80 6.34989e-80 5.70944e-80 5.00825e-80 4.26579e-80 3.51228e-80 2.78461e-80 2.11898e-80 1.54368e-80 1.07438e-80 7.13237e-81 4.51073e-81 2.7153e-81 1.55494e-81 8.46915e-82 4.38764e-82 2.16289e-82 1.01507e-82 4.53876e-83 1.93529e-83 7.8769e-84 3.06356e-84 1.13984e-84 4.06167e-85 1.38772e-85 4.5513e-86 1.43447e-86 4.34956e-87 1.27018e-87 3.57602e-88 9.71593e-89 2.55e-89 6.47095e-90 1.58913e-90 3.77994e-91 8.71567e-92 1.94963e-92 4.23412e-93 8.93413e-94 1.83281e-94 3.65807e-95 7.1077e-96 1.34529e-96 2.4818e-97 4.46505e-98 7.83845e-99 1.34339e-99 2.24886e-100 3.67889e-101 5.88391e-102 9.20457e-103 1.40901e-103 2.11145e-104 3.09864e-105 4.45507e-106 6.27755e-107 8.67231e-108 1.175e-108 1.56185e-109 2.03696e-110 2.56869e-111 0 
0 1.9199e-156 2.79247e-155 4.00027e-154 5.66919e-153 7.94785e-152 1.10212e-150 1.51152e-149 2.05002e-148 2.74925e-147 3.64527e-146 4.77814e-145 6.19082e-144 7.92768e-143 1.00323e-141 1.25445e-140 1.54973e-139 1.89123e-138 2.27962e-137 2.71365e-136 3.18972e-135 3.70169e-134 4.24064e-133 4.79492e-132 5.35034e-131 5.89067e-130 6.39823e-129 6.85481e-128 7.24263e-127 7.54549e-126 7.74981e-125 7.84561e-124 7.8273e-123 7.69419e-122 7.45063e-121 7.1058e-120 6.67314e-119 6.16953e-118 5.6141e-117 5.02708e-116 4.42849e-115 3.83701e-114 3.26903e-113 2.73793e-112 2.25365e-111 1.82259e-110 1.4478e-109 1.12932e-108 8.64739e-108 6.49788e-107 4.79002e-106 3.46287e-105 2.45424e-104 1.7046e-103 1.15982e-102 7.72777e-102 5.04008e-101 3.21631e-100 2.00738e-99 1.22477e-98 7.30181e-98 4.25153e-97 2.41645e-96 1.33998e-95 7.24553e-95 3.81804e-94 1.95952e-93 9.7887e-93 4.75645e-92 2.2466e-91 1.03073e-90 4.58998e-90 1.98238e-89 8.29688e-89 3.36218e-88 1.318e-87 4.99327e-87 1.82642e-86 6.4434e-86 2.19004e-85 7.16342e-85 2.25217e-84 6.79763e-84 1.9671e-83 5.45032e-83 1.44391e-82 3.65223e-82 8.80712e-82 2.02171e-81 4.41122e-81 9.13492e-81 1.79278e-80 3.32987e-80 5.84613e-80 9.69148e-80 1.51583e-79 2.23595e-79 3.11059e-79 4.08376e-79 5.06639e-79 5.95261e-79 6.64432e-79 7.0752e-79 7.22505e-79 7.12007e-79 6.8214e-79 6.4087e-79 5.96599e-79 5.57254e-79 5.29803e-79 5.19843e-79 5.3103e-79 5.64351e-79 6.17514e-79 6.84855e-79 7.58038e-79 8.27572e-79 8.84786e-79 9.23682e-79 9.42083e-79 9.41755e-79 9.27576e-79 9.06118e-79 8.8414e-79 8.67371e-79 8.59746e-79 8.6306e-79 8.76962e-79 8.9928e-79 9.26721e-79 9.55832e-79 9.83952e-79 1.00972e-78 1.03287e-78 1.05342e-78 1.07061e-78 1.08236e-78 1.08549e-78 1.07674e-78 1.05413e-78 1.01801e-78 9.71087e-79 9.17736e-79 8.62649e-79 8.09609e-79 7.60752e-79 7.16495e-79 6.7607e-79 6.38457e-79 6.03401e-79 5.72123e-79 5.47366e-79 5.32614e-79 5.30723e-79 5.42502e-79 5.65942e-79 5.96511e-79 6.28426e-79 6.56347e-79 6.76726e-79 6.88339e-79 6.91945e-79 6.895e-79 6.83423e-79 6.76237e-79 6.70557e-79 6.69096e-79 6.74366e-79 6.87968e-79 7.09738e-79 7.3723e-79 7.6592e-79 7.90189e-79 8.04776e-79 8.06209e-79 7.93789e-79 7.69916e-79 7.39727e-79 7.10162e-79 6.88674e-79 6.81846e-79 6.94206e-79 7.27428e-79 7.79996e-79 8.47326e-79 9.22307e-79 9.96274e-79 1.06037e-78 1.10709e-78 1.1316e-78 1.13244e-78 1.11114e-78 1.0711e-78 1.01599e-78 9.48628e-79 8.70587e-79 7.82825e-79 6.86725e-79 5.84958e-79 4.81666e-79 3.81906e-79 2.90643e-79 2.11755e-79 1.47396e-79 9.78624e-80 6.18997e-80 3.72671e-80 2.13449e-80 1.16278e-80 6.02525e-81 2.97078e-81 1.39454e-81 6.23703e-82 2.66011e-82 1.083e-82 4.2133e-83 1.56809e-83 5.58939e-84 1.91031e-84 6.26732e-85 1.976e-85 5.99371e-86 1.75095e-86 4.93139e-87 1.34035e-87 3.51919e-88 8.93397e-89 2.19488e-89 5.22293e-90 1.20479e-90 2.69616e-91 5.85794e-92 1.23658e-92 2.53793e-93 5.06765e-94 9.85098e-95 1.86537e-95 3.44282e-96 6.19692e-97 1.08839e-97 1.86621e-98 3.12556e-99 5.11553e-100 8.18559e-101 1.28115e-101 1.96211e-102 2.94174e-103 4.31928e-104 6.21315e-105 8.75924e-106 1.21068e-106 1.64117e-107 2.18262e-108 2.84803e-109 3.59329e-110 0 
0 2.72443e-155 3.96036e-154 5.66998e-153 8.03083e-152 1.12522e-150 1.55942e-149 2.13746e-148 2.89727e-147 3.88323e-146 5.14587e-145 6.7412e-144 8.72925e-143 1.11719e-141 1.41296e-140 1.76578e-139 2.18017e-138 2.65908e-137 3.20335e-136 3.81108e-135 4.47715e-134 5.19283e-133 5.94553e-132 6.71886e-131 7.49295e-130 8.24504e-129 8.95047e-128 9.58384e-127 1.01204e-125 1.05378e-124 1.08172e-123 1.09449e-122 1.09133e-121 1.07219e-120 1.03768e-119 9.89114e-119 9.28386e-118 8.57858e-117 7.80207e-116 6.98251e-115 6.14778e-114 5.32384e-113 4.53336e-112 3.79484e-111 3.12196e-110 2.5235e-109 2.00353e-108 1.562e-107 1.19542e-106 8.97808e-106 6.61494e-105 4.77973e-104 3.38582e-103 2.35044e-102 1.59845e-101 1.0645e-100 6.93926e-100 4.42609e-99 2.76108e-98 1.68381e-97 1.00336e-96 5.83935e-96 3.31734e-95 1.83868e-94 9.93744e-94 5.23411e-93 2.68505e-92 1.3407e-91 6.51167e-91 3.07427e-90 1.40984e-89 6.27548e-89 2.70917e-88 1.13339e-87 4.59098e-87 1.79895e-86 6.81263e-86 2.49092e-85 8.78423e-85 2.98453e-84 9.75846e-84 3.06694e-83 9.25353e-83 2.67686e-82 7.41443e-82 1.96362e-81 4.96524e-81 1.19699e-80 2.74696e-80 5.99209e-80 1.24056e-79 2.43411e-79 4.52014e-79 7.93437e-79 1.31512e-78 2.05668e-78 3.03341e-78 4.21965e-78 5.53954e-78 6.87234e-78 8.07458e-78 9.01329e-78 9.59853e-78 9.80287e-78 9.66174e-78 9.25791e-78 8.69935e-78 8.09989e-78 7.56703e-78 7.1952e-78 7.06028e-78 7.21182e-78 7.66319e-78 8.38335e-78 9.29558e-78 1.0287e-77 1.1229e-77 1.20043e-77 1.25316e-77 1.27812e-77 1.27773e-77 1.25858e-77 1.22956e-77 1.19984e-77 1.17716e-77 1.16685e-77 1.17135e-77 1.19018e-77 1.2204e-77 1.25754e-77 1.29695e-77 1.33501e-77 1.36989e-77 1.40123e-77 1.42903e-77 1.4523e-77 1.4682e-77 1.47243e-77 1.46058e-77 1.42998e-77 1.38106e-77 1.31753e-77 1.24526e-77 1.17062e-77 1.09873e-77 1.03249e-77 9.72459e-78 9.1761e-78 8.66567e-78 8.18988e-78 7.76532e-78 7.42919e-78 7.22879e-78 7.20285e-78 7.36241e-78 7.68027e-78 8.09498e-78 8.52815e-78 8.90727e-78 9.1842e-78 9.34223e-78 9.39161e-78 9.35881e-78 9.27664e-78 9.17934e-78 9.10236e-78 9.08252e-78 9.15386e-78 9.3381e-78 9.63304e-78 1.00055e-77 1.03943e-77 1.07233e-77 1.09211e-77 1.09409e-77 1.07729e-77 1.04498e-77 1.00411e-77 9.64081e-78 9.34986e-78 9.25742e-78 9.42481e-78 9.87468e-78 1.05865e-77 1.14982e-77 1.25135e-77 1.3515e-77 1.43828e-77 1.50154e-77 1.53475e-77 1.53589e-77 1.50706e-77 1.45282e-77 1.37817e-77 1.28688e-77 1.18108e-77 1.06209e-77 9.31763e-78 7.93735e-78 6.53626e-78 5.18293e-78 3.94475e-78 2.87435e-78 2.00097e-78 1.3287e-78 8.40543e-79 5.06131e-79 2.89936e-79 1.57974e-79 8.1874e-80 4.03769e-80 1.89579e-80 8.4809e-81 3.61805e-81 1.47339e-81 5.73371e-82 2.13458e-82 7.61098e-83 2.60206e-83 8.53964e-84 2.69335e-84 8.17247e-85 2.38829e-85 6.72889e-86 1.82961e-86 4.80561e-87 1.22045e-87 2.99958e-88 7.1407e-89 1.64785e-89 3.68922e-90 8.01896e-91 1.69349e-91 3.47721e-92 6.94624e-93 1.35088e-93 2.55916e-94 4.72548e-95 8.50958e-96 1.49526e-96 2.56507e-97 4.29806e-98 7.03788e-99 1.12671e-99 1.76429e-100 2.70339e-101 4.0551e-102 5.95694e-103 8.57314e-104 1.20924e-104 1.67223e-105 2.26798e-106 3.01776e-107 3.9398e-108 4.97323e-109 0 
0 3.82446e-154 5.55619e-153 7.95008e-152 1.12538e-150 1.57587e-149 2.18271e-148 2.99005e-147 4.0506e-146 5.42591e-145 7.18602e-144 9.40843e-143 1.21761e-141 1.55743e-140 1.96863e-139 2.4588e-138 3.03409e-137 3.69847e-136 4.45296e-135 5.29477e-134 6.21664e-133 7.20632e-132 8.24624e-131 9.3136e-130 1.03808e-128 1.14164e-127 1.23863e-126 1.32554e-125 1.39898e-124 1.45587e-123 1.49364e-122 1.51045e-121 1.50527e-120 1.47805e-119 1.42971e-118 1.36205e-117 1.27774e-116 1.18003e-115 1.07264e-114 9.59454e-114 8.44305e-113 7.30759e-112 6.21928e-111 5.20336e-110 4.27849e-109 3.45652e-108 2.74287e-107 2.13729e-106 1.63486e-105 1.22721e-104 9.03734e-104 6.52675e-103 4.62101e-102 3.20631e-101 2.17941e-100 1.45067e-99 9.45194e-99 6.0258e-98 3.75717e-97 2.29015e-96 1.36402e-95 7.93452e-95 4.50548e-94 2.49605e-93 1.3484e-92 7.09884e-92 3.63997e-91 1.81669e-90 8.81958e-90 4.16203e-89 1.90784e-88 8.48853e-88 3.663e-87 1.53179e-86 6.20217e-86 2.4293e-85 9.19607e-85 3.36106e-84 1.18482e-83 4.02403e-83 1.31524e-82 4.13213e-82 1.2463e-81 3.60409e-81 9.9794e-81 2.64208e-80 6.67879e-80 1.60961e-79 3.69287e-79 8.05336e-79 1.66691e-78 3.26992e-78 6.071e-78 1.06547e-77 1.76573e-77 2.76102e-77 4.07182e-77 5.66371e-77 7.43494e-77 9.22364e-77 1.08374e-76 1.20979e-76 1.28844e-76 1.31602e-76 1.29725e-76 1.24323e-76 1.16843e-76 1.08812e-76 1.01671e-76 9.6688e-77 9.48797e-77 9.69107e-77 1.0296e-76 1.12612e-76 1.24839e-76 1.38128e-76 1.50756e-76 1.6115e-76 1.68221e-76 1.71573e-76 1.71527e-76 1.68968e-76 1.65086e-76 1.61108e-76 1.58073e-76 1.56696e-76 1.573e-76 1.59823e-76 1.63871e-76 1.68846e-76 1.74123e-76 1.79221e-76 1.83892e-76 1.88089e-76 1.91812e-76 1.94927e-76 1.97056e-76 1.97622e-76 1.96034e-76 1.91935e-76 1.85383e-76 1.7687e-76 1.67185e-76 1.57179e-76 1.47538e-76 1.38651e-76 1.30595e-76 1.23232e-76 1.16378e-76 1.09989e-76 1.04287e-76 9.97711e-77 9.70772e-77 9.67252e-77 9.88636e-77 1.03128e-76 1.08695e-76 1.14512e-76 1.19606e-76 1.2333e-76 1.25457e-76 1.26126e-76 1.25691e-76 1.24592e-76 1.23288e-76 1.22256e-76 1.21989e-76 1.22945e-76 1.25414e-76 1.29367e-76 1.34361e-76 1.39574e-76 1.43986e-76 1.46641e-76 1.4691e-76 1.44663e-76 1.40336e-76 1.34862e-76 1.29499e-76 1.25602e-76 1.24363e-76 1.26606e-76 1.32633e-76 1.4217e-76 1.54385e-76 1.67986e-76 1.81403e-76 1.93029e-76 2.01504e-76 2.05954e-76 2.06109e-76 2.02247e-76 1.94979e-76 1.84972e-76 1.72731e-76 1.58541e-76 1.42577e-76 1.2509e-76 1.06567e-76 8.77624e-77 6.95973e-77 5.29758e-77 3.86049e-77 2.68779e-77 1.78499e-77 1.12935e-77 6.80139e-78 3.8968e-78 2.12358e-78 1.10081e-78 5.42988e-79 2.55002e-79 1.14103e-79 4.869e-80 1.98335e-80 7.72036e-81 2.87502e-81 1.02542e-81 3.50683e-82 1.15127e-82 3.63226e-83 1.10252e-83 3.22312e-84 9.08429e-85 2.47097e-85 6.49268e-86 1.64955e-86 4.0558e-87 9.659e-88 2.22991e-88 4.99442e-89 1.08605e-89 2.29458e-90 4.71344e-91 9.41994e-92 1.83277e-92 3.47363e-93 6.41697e-94 1.15609e-94 2.03236e-95 3.48808e-96 5.8474e-97 9.57942e-98 1.53432e-98 2.40373e-99 3.68496e-100 5.53018e-101 8.12783e-102 1.17033e-102 1.65157e-103 2.28506e-104 3.1007e-105 4.12788e-106 5.39184e-107 6.80953e-108 0 
0 5.31026e-153 7.71032e-152 1.10259e-150 1.55987e-149 2.18303e-148 3.02192e-147 4.13727e-146 5.6015e-145 7.49907e-144 9.92598e-143 1.29883e-141 1.67994e-140 2.14756e-139 2.71303e-138 3.38662e-137 4.17662e-136 5.0883e-135 6.12285e-134 7.27622e-133 8.53828e-132 9.89199e-131 1.13131e-129 1.27703e-128 1.42257e-127 1.56361e-126 1.6955e-125 1.81347e-124 1.91289e-123 1.98958e-122 2.04008e-121 2.0619e-120 2.05371e-119 2.01548e-118 1.94849e-117 1.85529e-116 1.7395e-115 1.60562e-114 1.45872e-113 1.30409e-112 1.14697e-111 9.92196e-111 8.43984e-110 7.05748e-109 5.80001e-108 4.68328e-107 3.71443e-106 2.89285e-105 2.21166e-104 1.65934e-103 1.22134e-102 8.81601e-102 6.2387e-101 4.32658e-100 2.93942e-99 1.95558e-98 1.27355e-97 8.11515e-97 5.05746e-96 3.08125e-95 1.83432e-94 1.06652e-93 6.05321e-93 3.35193e-92 1.80992e-91 9.52421e-91 4.88138e-90 2.43517e-89 1.18169e-88 5.57406e-88 2.55399e-87 1.13586e-86 4.89942e-86 2.04798e-85 8.28882e-85 3.2453e-84 1.22802e-83 4.48651e-83 1.58096e-82 5.36742e-82 1.75369e-81 5.50764e-81 1.6606e-80 4.80055e-80 1.3288e-79 3.51694e-79 8.88764e-79 2.14134e-78 4.91146e-78 1.07081e-77 2.21586e-77 4.34584e-77 8.06697e-77 1.41551e-76 2.34547e-76 3.66706e-76 5.40746e-76 7.52096e-76 9.87258e-76 1.22476e-75 1.43907e-75 1.60652e-75 1.71111e-75 1.74792e-75 1.72323e-75 1.65174e-75 1.55265e-75 1.44621e-75 1.35154e-75 1.28547e-75 1.26149e-75 1.28842e-75 1.36863e-75 1.49662e-75 1.65875e-75 1.83496e-75 2.00243e-75 2.14029e-75 2.23411e-75 2.27865e-75 2.27813e-75 2.24428e-75 2.19291e-75 2.14025e-75 2.10008e-75 2.08186e-75 2.08989e-75 2.12333e-75 2.17697e-75 2.24289e-75 2.31281e-75 2.38035e-75 2.44224e-75 2.49785e-75 2.54717e-75 2.58844e-75 2.61664e-75 2.62412e-75 2.60308e-75 2.54876e-75 2.46192e-75 2.34908e-75 2.22067e-75 2.08796e-75 1.96006e-75 1.8421e-75 1.73514e-75 1.63735e-75 1.54631e-75 1.46142e-75 1.38565e-75 1.32564e-75 1.28981e-75 1.28508e-75 1.31344e-75 1.37005e-75 1.44398e-75 1.52127e-75 1.58898e-75 1.63851e-75 1.66686e-75 1.67582e-75 1.67011e-75 1.65556e-75 1.63828e-75 1.62459e-75 1.62104e-75 1.6337e-75 1.66644e-75 1.71886e-75 1.78509e-75 1.85424e-75 1.91278e-75 1.94804e-75 1.95165e-75 1.92192e-75 1.8646e-75 1.79205e-75 1.72099e-75 1.66932e-75 1.65291e-75 1.68264e-75 1.76254e-75 1.88895e-75 2.05084e-75 2.23111e-75 2.40892e-75 2.56301e-75 2.67535e-75 2.73433e-75 2.7364e-75 2.68522e-75 2.58888e-75 2.45618e-75 2.29379e-75 2.1055e-75 1.89361e-75 1.66146e-75 1.41554e-75 1.16585e-75 9.24621e-76 7.03868e-76 5.12983e-76 3.57196e-76 2.37248e-76 1.50126e-76 9.04252e-77 5.18168e-77 2.82428e-77 1.46432e-77 7.22437e-78 3.39351e-78 1.51882e-78 6.48268e-79 2.64135e-79 1.02845e-79 3.831e-80 1.36679e-80 4.67575e-81 1.53552e-81 4.84615e-82 1.47149e-82 4.30326e-83 1.2133e-83 3.30146e-84 8.67814e-85 2.20564e-85 5.42521e-86 1.29254e-86 2.98522e-87 6.68888e-88 1.45513e-88 3.07565e-89 6.32063e-90 1.26374e-90 2.45986e-91 4.66422e-92 8.62028e-93 1.55375e-93 2.73269e-94 4.6922e-95 7.86966e-96 1.28985e-96 2.06691e-97 3.23965e-98 4.96886e-99 7.4606e-100 1.09704e-100 1.58041e-101 2.23138e-102 3.08881e-103 4.19346e-104 5.58545e-105 7.29943e-106 9.22325e-107 0 
0 7.29235e-152 1.05822e-150 1.51239e-149 2.13838e-148 2.99092e-147 4.13788e-146 5.66184e-145 7.66123e-144 1.02507e-142 1.35603e-141 1.77337e-140 2.29241e-139 2.92884e-138 3.69792e-137 4.61341e-136 5.68635e-135 6.92367e-134 8.32667e-133 9.88961e-132 1.15984e-130 1.34298e-129 1.53506e-128 1.73181e-127 1.92811e-126 2.11809e-125 2.29549e-124 2.45384e-123 2.58694e-122 2.68918e-121 2.75592e-120 2.78387e-119 2.77131e-118 2.71824e-117 2.62648e-116 2.49949e-115 2.34224e-114 2.16081e-113 1.96206e-112 1.75315e-111 1.54111e-110 1.33244e-109 1.13281e-108 9.46771e-108 7.77673e-107 6.27615e-106 4.9752e-105 3.87276e-104 2.95932e-103 2.21916e-102 1.63255e-101 1.17783e-100 8.33083e-100 5.7746e-99 3.92124e-98 2.60751e-97 1.69727e-96 1.08099e-95 6.73361e-95 4.10048e-94 2.43993e-93 1.41797e-92 8.04412e-92 4.45233e-91 2.40299e-90 1.26393e-89 6.47503e-89 3.22876e-88 1.5661e-87 7.38409e-87 3.38188e-86 1.50341e-85 6.48211e-85 2.70843e-84 1.09574e-83 4.28842e-83 1.62209e-82 5.92397e-82 2.0867e-81 7.08183e-81 2.313e-80 7.26167e-80 2.18871e-79 6.32514e-79 1.75025e-78 4.63096e-78 1.16994e-77 2.81799e-77 6.46174e-77 1.40845e-76 2.91387e-76 5.71357e-76 1.06037e-75 1.86032e-75 3.08203e-75 4.81804e-75 7.10398e-75 9.87986e-75 1.29685e-74 1.60881e-74 1.89036e-74 2.11044e-74 2.24802e-74 2.29664e-74 2.26452e-74 2.17093e-74 2.04107e-74 1.90151e-74 1.77737e-74 1.69071e-74 1.65926e-74 1.69457e-74 1.79978e-74 1.96766e-74 2.18032e-74 2.41147e-74 2.63117e-74 2.81205e-74 2.9352e-74 2.99372e-74 2.99317e-74 2.9489e-74 2.88163e-74 2.81267e-74 2.76007e-74 2.73623e-74 2.7468e-74 2.79065e-74 2.86096e-74 2.94737e-74 3.03901e-74 3.12753e-74 3.20865e-74 3.28152e-74 3.34616e-74 3.40023e-74 3.43718e-74 3.44698e-74 3.41939e-74 3.34819e-74 3.23434e-74 3.08637e-74 2.91796e-74 2.74385e-74 2.57598e-74 2.42112e-74 2.28063e-74 2.15216e-74 2.03251e-74 1.92095e-74 1.82135e-74 1.74244e-74 1.6953e-74 1.68902e-74 1.72622e-74 1.80056e-74 1.89769e-74 1.99928e-74 2.08831e-74 2.15349e-74 2.19085e-74 2.20274e-74 2.19532e-74 2.17628e-74 2.15361e-74 2.13565e-74 2.13098e-74 2.14758e-74 2.19051e-74 2.25928e-74 2.34617e-74 2.43691e-74 2.51375e-74 2.56006e-74 2.56487e-74 2.52594e-74 2.45082e-74 2.35573e-74 2.26256e-74 2.19483e-74 2.17331e-74 2.2123e-74 2.31706e-74 2.4828e-74 2.69506e-74 2.9314e-74 3.16453e-74 3.36655e-74 3.51383e-74 3.59119e-74 3.59392e-74 3.52684e-74 3.40049e-74 3.2264e-74 3.01331e-74 2.76614e-74 2.48793e-74 2.18308e-74 1.86008e-74 1.5321e-74 1.2152e-74 9.25163e-75 6.74337e-75 4.69605e-75 3.11949e-75 1.97423e-75 1.18931e-75 6.81627e-76 3.71586e-76 1.92694e-76 9.5087e-77 4.46749e-77 1.99995e-77 8.53836e-78 3.47983e-78 1.3553e-78 5.04992e-79 1.8022e-79 6.16715e-80 2.02593e-80 6.39603e-81 1.94275e-81 5.68341e-82 1.603e-82 4.36345e-83 1.14739e-83 2.91733e-84 7.17854e-85 1.71095e-85 3.95315e-86 8.86128e-87 1.92853e-87 4.07796e-88 8.384e-89 1.67702e-89 3.26572e-90 6.19498e-91 1.14545e-91 2.06553e-92 3.63445e-93 6.24347e-94 1.04763e-94 1.71788e-95 2.75411e-96 4.31883e-97 6.62724e-98 9.95543e-99 1.4646e-99 2.11096e-100 2.98194e-101 4.12984e-102 5.60959e-103 7.47542e-104 9.77431e-105 1.23565e-105 0 
0 9.90327e-151 1.43627e-149 2.0515e-148 2.89896e-147 4.05239e-146 5.60316e-145 7.66237e-144 1.03623e-142 1.38566e-141 1.832e-140 2.39446e-139 3.09352e-138 3.95012e-137 4.98453e-136 6.21502e-135 7.65612e-134 9.31678e-133 1.11984e-131 1.32929e-130 1.5581e-129 1.80311e-128 2.05985e-127 2.32258e-126 2.58439e-125 2.83748e-124 3.07342e-123 3.28363e-122 3.45984e-121 3.5946e-120 3.6818e-119 3.71712e-118 3.69833e-117 3.62555e-116 3.50126e-115 3.33019e-114 3.119e-113 2.87587e-112 2.60996e-111 2.33083e-110 2.04783e-109 1.76963e-108 1.5037e-107 1.2561e-106 1.03122e-105 8.31805e-105 6.59045e-104 5.12746e-103 3.91608e-102 2.93513e-101 2.15818e-100 1.55628e-99 1.10021e-98 7.62241e-98 5.17345e-97 3.4385e-96 2.23709e-95 1.42411e-94 8.8667e-94 5.39686e-93 3.20981e-92 1.86451e-91 1.05724e-90 5.84903e-90 3.15537e-89 1.65892e-88 8.49474e-88 4.234e-87 2.05279e-86 9.67464e-86 4.42905e-85 1.9681e-84 8.48216e-84 3.54266e-83 1.43267e-82 5.60484e-82 2.1192e-81 7.7365e-81 2.72414e-80 9.24179e-80 3.0174e-79 9.46982e-79 2.8533e-78 8.24303e-78 2.28023e-77 6.03141e-77 1.5233e-76 3.66809e-76 8.40884e-76 1.8324e-75 3.79009e-75 7.4301e-75 1.37868e-74 2.41833e-74 4.00592e-74 6.26154e-74 9.23147e-74 1.28378e-73 1.68505e-73 2.09036e-73 2.45624e-73 2.74235e-73 2.92138e-73 2.98491e-73 2.94359e-73 2.82241e-73 2.65408e-73 2.4731e-73 2.31207e-73 2.19964e-73 2.15882e-73 2.20463e-73 2.34113e-73 2.55893e-73 2.83484e-73 3.13476e-73 3.41984e-73 3.65459e-73 3.81448e-73 3.89054e-73 3.88998e-73 3.83271e-73 3.74561e-73 3.65628e-73 3.58815e-73 3.5573e-73 3.57104e-73 3.62793e-73 3.71909e-73 3.83111e-73 3.94992e-73 4.06467e-73 4.16982e-73 4.26429e-73 4.34808e-73 4.41816e-73 4.46604e-73 4.47874e-73 4.44296e-73 4.35064e-73 4.20301e-73 4.0111e-73 3.79262e-73 3.56668e-73 3.34876e-73 3.14765e-73 2.96514e-73 2.79818e-73 2.64266e-73 2.49762e-73 2.36812e-73 2.26549e-73 2.20415e-73 2.1959e-73 2.24415e-73 2.34072e-73 2.46695e-73 2.59901e-73 2.71483e-73 2.79968e-73 2.84837e-73 2.86396e-73 2.85444e-73 2.82978e-73 2.80038e-73 2.77706e-73 2.77098e-73 2.7925e-73 2.84819e-73 2.93743e-73 3.05019e-73 3.16796e-73 3.26772e-73 3.3279e-73 3.33423e-73 3.28381e-73 3.18645e-73 3.06315e-73 2.94233e-73 2.85449e-73 2.8266e-73 2.87716e-73 3.01303e-73 3.22798e-73 3.50325e-73 3.80974e-73 4.11205e-73 4.37403e-73 4.56503e-73 4.66537e-73 4.66895e-73 4.58196e-73 4.41807e-73 4.19218e-73 3.91558e-73 3.59467e-73 3.23335e-73 2.83736e-73 2.41774e-73 1.99159e-73 1.57979e-73 1.20286e-73 8.76842e-74 6.10701e-74 4.05728e-74 2.56808e-74 1.54729e-74 8.86936e-75 4.83593e-75 2.50824e-75 1.23797e-75 5.8176e-76 2.60494e-76 1.11239e-76 4.53472e-77 1.76661e-77 6.58435e-78 2.35048e-78 8.04582e-79 2.64391e-79 8.34973e-80 2.53702e-80 7.42445e-81 2.0948e-81 5.70419e-82 1.5005e-82 3.81657e-83 9.39487e-84 2.24007e-84 5.17774e-85 1.1611e-85 2.528e-86 5.34781e-87 1.09994e-87 2.2011e-88 4.28814e-89 8.13806e-90 1.50539e-90 2.71581e-91 4.78084e-92 8.21655e-93 1.37934e-93 2.26287e-94 3.62954e-95 5.69433e-96 8.74212e-97 1.31387e-97 1.93385e-98 2.78866e-99 3.9412e-100 5.46106e-101 7.42148e-102 9.89493e-103 1.29444e-103 1.63721e-104 0 
0 1.32984e-149 1.92756e-148 2.75165e-147 3.88608e-146 5.42913e-145 7.50243e-144 1.02537e-142 1.38588e-141 1.85216e-140 2.44736e-139 3.19693e-138 4.12792e-137 5.26794e-136 6.64368e-135 8.27906e-134 1.0193e-132 1.23969e-131 1.48922e-130 1.76677e-129 2.06973e-128 2.39385e-127 2.73318e-126 3.08008e-125 3.42539e-124 3.75875e-123 4.06905e-122 4.34497e-121 4.57562e-120 4.75124e-119 4.86385e-118 4.90784e-117 4.88038e-116 4.78176e-115 4.61535e-114 4.38749e-113 4.10705e-112 3.78489e-111 3.43311e-110 3.06432e-109 2.69085e-108 2.32407e-107 1.9738e-106 1.64793e-105 1.3522e-104 1.09015e-103 8.63292e-103 6.71311e-102 5.12451e-101 3.83892e-100 2.82131e-99 2.03345e-98 1.43683e-97 9.94966e-97 6.74968e-96 4.48394e-95 2.91585e-94 1.85531e-93 1.15459e-92 7.02426e-92 4.17575e-91 2.42447e-90 1.37413e-89 7.59867e-89 4.09739e-88 2.15322e-87 1.1021e-86 5.49073e-86 2.66094e-85 1.25354e-84 5.7363e-84 2.54793e-83 1.09766e-82 4.58264e-82 1.8525e-81 7.24446e-81 2.73809e-80 9.99209e-80 3.51707e-79 1.19276e-78 3.89291e-78 1.22134e-77 3.67872e-77 1.06242e-76 2.93801e-76 7.76897e-76 1.96158e-75 4.72217e-75 1.08224e-74 2.35779e-74 4.87568e-74 9.5563e-74 1.77286e-73 3.10926e-73 5.14968e-73 8.04835e-73 1.18647e-72 1.64985e-72 2.16546e-72 2.68632e-72 3.15659e-72 3.52448e-72 3.75489e-72 3.837e-72 3.78443e-72 3.62927e-72 3.41347e-72 3.18134e-72 2.97475e-72 2.83049e-72 2.77811e-72 2.83688e-72 3.01201e-72 3.29148e-72 3.64553e-72 4.03039e-72 4.39625e-72 4.69759e-72 4.90288e-72 5.00066e-72 5.00014e-72 4.92688e-72 4.81532e-72 4.70089e-72 4.61362e-72 4.57413e-72 4.59181e-72 4.66479e-72 4.7817e-72 4.92533e-72 5.07765e-72 5.22478e-72 5.3596e-72 5.48071e-72 5.58812e-72 5.67795e-72 5.73933e-72 5.75559e-72 5.7097e-72 5.59133e-72 5.40199e-72 5.15583e-72 4.87551e-72 4.58553e-72 4.30574e-72 4.04743e-72 3.81292e-72 3.59833e-72 3.3984e-72 3.21191e-72 3.04537e-72 2.91336e-72 2.83439e-72 2.82367e-72 2.88559e-72 3.00965e-72 3.1719e-72 3.34172e-72 3.49072e-72 3.59995e-72 3.66274e-72 3.68296e-72 3.67087e-72 3.63928e-72 3.60158e-72 3.57163e-72 3.56381e-72 3.59139e-72 3.66285e-72 3.77735e-72 3.92209e-72 4.07327e-72 4.20137e-72 4.27869e-72 4.28694e-72 4.22237e-72 4.09755e-72 3.93944e-72 3.78449e-72 3.67184e-72 3.63606e-72 3.70093e-72 3.8752e-72 4.15091e-72 4.50397e-72 4.89706e-72 5.28479e-72 5.62077e-72 5.86575e-72 5.99447e-72 5.9991e-72 5.88754e-72 5.6773e-72 5.38741e-72 5.03232e-72 4.62021e-72 4.15611e-72 3.64738e-72 3.1082e-72 2.56057e-72 2.03132e-72 1.54681e-72 1.1277e-72 7.85508e-73 5.21931e-73 3.30405e-73 1.99101e-73 1.14147e-73 6.22479e-74 3.22919e-74 1.59411e-74 7.4928e-75 3.35579e-75 1.43336e-75 5.84465e-76 2.27752e-76 8.49089e-77 3.03194e-77 1.03816e-77 3.41251e-78 1.07805e-78 3.27666e-79 9.59221e-80 2.70737e-80 7.37486e-81 1.94068e-81 4.93801e-82 1.216e-82 2.9005e-83 6.70691e-84 1.50462e-84 3.27725e-85 6.93566e-86 1.42712e-86 2.85705e-87 5.56845e-88 1.05724e-88 1.95657e-89 3.53133e-90 6.21925e-91 1.06935e-91 1.79598e-92 2.94775e-93 4.73027e-94 7.42474e-95 1.14041e-95 1.71477e-96 2.52514e-97 3.64308e-98 5.15125e-99 7.14126e-100 9.70966e-101 1.29522e-101 1.69523e-102 2.14517e-103 0 