# vtk DataFile Version 3.0
Gray-Scott Simulation Output
ASCII
DATASET STRUCTURED_POINTS
DIMENSIONS 256 256 1
SPACING 1.0 1.0 1.0
ORIGIN 0 0 0
POINT_DATA 65536
SCALARS u double
LOOKUP_TABLE default
0 0 0 0 0 0 0 0 0 0 0 0 0 0 0 0 0 0 0 0 0 0 0 0 0 0 0 0 0 0 0 0 0 0 0 0 0 0 0 0 0 0 0 0 0 0 0 0 0 0 0 0 0 0 0 0 0 0 0 0 0 0 0 0 0 0 0 0 0 0 0 0 0 0 0 0 0 0 0 0 0 0 0 0 0 0 0 0 0 0 0 0 0 0 0 0 0 0 0 0 0 0 0 0 0 0 0 0 0 0 0 0 0 0 0 0 0 0 0 0 0 0 0 0 0 0 0 0 0 0 0 0 0 0 0 0 0 0 0 0 0 0 0 0 0 0 0 0 0 0 0 0 0 0 0 0 0 0 0 0 0 0 0 0 0 0 0 0 0 0 0 0 0 0 0 0 0 0 0 0 0 0 0 0 0 0 0 0 0 0 0 0 0 0 0 0 0 0 0 0 0 0 0 0 0 0 0 0 0 0 0 0 0 0 0 0 0 0 0 0 0 0 0 0 0 0 0 0 0 0 0 0 0 0 0 0 0 0 0 0 0 0 0 0 0 0 0 0 0 0 0 0 0 0 0 0 
0 9.19518e-95 4.75246e-94 2.34477e-93 1.14435e-92 5.5317e-92 2.64841e-91 1.25575e-90 5.89628e-90 2.74141e-89 1.26198e-88 5.75144e-88 2.59482e-87 1.15879e-86 5.12191e-86 2.24051e-85 9.69855e-85 4.15405e-84 1.76035e-83 7.37984e-83 3.06034e-82 1.25523e-81 5.09167e-81 2.04238e-80 8.10038e-80 3.17628e-79 1.23119e-78 4.71715e-78 1.78619e-77 6.68377e-77 2.47119e-76 9.02671e-76 3.25714e-75 1.16084e-74 4.08586e-74 1.42007e-73 4.87298e-73 1.65074e-72 5.51951e-72 1.82138e-71 5.93083e-71 1.90538e-70 6.0386e-70 1.88761e-69 5.81891e-69 1.76872e-68 5.3002e-68 1.56557e-67 4.55754e-67 1.30734e-66 3.69469e-66 1.02854e-65 2.81994e-65 7.61305e-65 2.02348e-64 5.29397e-64 1.36309e-63 3.45338e-63 8.60718e-63 2.11003e-62 5.08677e-62 1.20569e-61 2.80921e-61 6.43275e-61 1.44739e-60 3.19938e-60 6.94615e-60 1.48092e-59 3.09985e-59 6.36913e-59 1.28428e-58 2.54092e-58 4.93159e-58 9.3877e-58 1.75235e-57 3.20694e-57 5.75285e-57 1.01139e-56 1.7423e-56 2.94048e-56 4.86114e-56 7.87075e-56 1.24794e-55 1.93738e-55 2.94466e-55 4.38143e-55 6.38154e-55 9.09801e-55 1.26961e-54 1.73421e-54 2.31879e-54 3.03522e-54 3.88994e-54 4.88207e-54 6.00178e-54 7.22957e-54 8.53649e-54 9.88559e-54 1.12346e-53 1.25394e-53 1.37586e-53 1.48573e-53 1.58109e-53 1.66079e-53 1.72505e-53 1.77544e-53 1.81461e-53 1.84595e-53 1.87318e-53 1.89984e-53 1.92893e-53 1.96256e-53 2.00178e-53 2.04656e-53 2.09591e-53 2.14813e-53 2.2011e-53 2.25266e-53 2.3009e-53 2.34446e-53 2.3826e-53 2.41532e-53 2.4432e-53 2.4673e-53 2.48892e-53 2.50939e-53 2.52982e-53 2.55096e-53 2.57311e-53 2.59604e-53 2.61904e-53 2.64098e-53 2.66043e-53 2.67577e-53 2.68535e-53 2.68762e-53 2.68124e-53 2.66525e-53 2.63909e-53 2.60273e-53 2.55663e-53 2.50176e-53 2.43958e-53 2.3719e-53 2.30084e-53 2.22869e-53 2.15781e-53 2.0905e-53 2.02889e-53 1.9748e-53 1.92971e-53 1.89459e-53 1.86987e-53 1.85543e-53 1.85058e-53 1.85416e-53 1.86466e-53 1.88035e-53 1.89949e-53 1.9205e-53 1.94206e-53 1.96327e-53 1.98362e-53 2.00296e-53 2.02144e-53 2.03932e-53 2.05688e-53 2.07428e-53 2.0915e-53 2.10831e-53 2.12435e-53 2.13922e-53 2.15263e-53 2.16454e-53 2.17527e-53 2.18557e-53 2.19656e-53 2.20967e-53 2.22636e-53 2.24794e-53 2.27531e-53 2.30867e-53 2.34741e-53 2.38999e-53 2.43399e-53 2.47625e-53 2.51309e-53 2.54058e-53 2.55487e-53 2.55248e-53 2.53058e-53 2.48715e-53 2.42116e-53 2.33259e-53 2.22248e-53 2.0928e-53 1.94639e-53 1.7868e-53 1.61808e-53 1.44458e-53 1.27069e-53 1.10064e-53 9.38241e-54 7.86713e-54 6.48534e-54 5.25365e-54 4.18038e-54 3.26612e-54 2.50472e-54 1.88483e-54 1.39141e-54 1.00744e-54 7.15301e-55 4.97969e-55 3.39872e-55 2.27403e-55 1.49151e-55 9.58959e-56 6.04394e-56 3.73423e-56 2.26185e-56 1.34319e-56 7.82096e-57 4.46555e-57 2.50052e-57 1.37335e-57 7.39915e-58 3.91109e-58 2.02859e-58 1.03261e-58 5.15937e-59 2.53074e-59 1.21889e-59 5.76527e-60 2.67851e-60 1.22254e-60 5.48284e-61 2.41658e-61 1.04696e-61 4.45931e-62 1.86766e-62 7.69299e-63 3.11703e-63 1.24255e-63 4.87406e-64 1.88169e-64 7.15096e-65 2.67555e-65 9.85759e-66 3.57693e-66 1.2785e-66 4.50162e-67 1.56024e-67 5.27916e-68 1.60477e-68 0 
0 4.75359e-94 2.45679e-93 1.2121e-92 5.91542e-92 2.85939e-91 1.36896e-90 6.49086e-90 3.04769e-89 1.41697e-88 6.52285e-88 2.97276e-87 1.34119e-86 5.98947e-86 2.64739e-85 1.15807e-84 5.01304e-84 2.14721e-83 9.09934e-83 3.81476e-82 1.58198e-81 6.48884e-81 2.63221e-80 1.05588e-79 4.18795e-79 1.64223e-78 6.36598e-78 2.43917e-77 9.23672e-77 3.45651e-76 1.27806e-75 4.66883e-75 1.6848e-74 6.00512e-74 2.11383e-73 7.34744e-73 2.52152e-72 8.54259e-72 2.85666e-71 9.4277e-71 3.07023e-70 9.86485e-70 3.12679e-69 9.77532e-69 3.01384e-68 9.16215e-68 2.74596e-67 8.11224e-67 2.36192e-66 6.77631e-66 1.91537e-65 5.33296e-65 1.46239e-64 3.94874e-64 1.04973e-63 2.74689e-63 7.07402e-63 1.79255e-62 4.46862e-62 1.09569e-61 2.64199e-61 6.26346e-61 1.45966e-60 3.34316e-60 7.52384e-60 1.66346e-59 3.6123e-59 7.70311e-59 1.61276e-58 3.31437e-58 6.68459e-58 1.32282e-57 2.56795e-57 4.88934e-57 9.12855e-57 1.67093e-56 2.99803e-56 5.27177e-56 9.08322e-56 1.53325e-55 2.53518e-55 4.10542e-55 6.51032e-55 1.01085e-54 1.53662e-54 2.28666e-54 3.3309e-54 4.74927e-54 6.6281e-54 9.05429e-54 1.21072e-53 1.58487e-53 2.03125e-53 2.54938e-53 3.13413e-53 3.77529e-53 4.45771e-53 5.16209e-53 5.86631e-53 6.54738e-53 7.18358e-53 7.75673e-53 8.25401e-53 8.66939e-53 9.00407e-53 9.2662e-53 9.46966e-53 9.63218e-53 9.77312e-53 9.91101e-53 1.00615e-52 1.02355e-52 1.04387e-52 1.06708e-52 1.09268e-52 1.11978e-52 1.14727e-52 1.17404e-52 1.19908e-52 1.22169e-52 1.24149e-52 1.25847e-52 1.27293e-52 1.28544e-52 1.29665e-52 1.30727e-52 1.31787e-52 1.32884e-52 1.34033e-52 1.35223e-52 1.36417e-52 1.37556e-52 1.38567e-52 1.39364e-52 1.39863e-52 1.39981e-52 1.39652e-52 1.38823e-52 1.37466e-52 1.3558e-52 1.33187e-52 1.3034e-52 1.27112e-52 1.23598e-52 1.19909e-52 1.16163e-52 1.12482e-52 1.08987e-52 1.05788e-52 1.0298e-52 1.00639e-52 9.88156e-53 9.75331e-53 9.67844e-53 9.65342e-53 9.6722e-53 9.72688e-53 9.80853e-53 9.90807e-53 1.00172e-52 1.01292e-52 1.02394e-52 1.03449e-52 1.04453e-52 1.05411e-52 1.06338e-52 1.07248e-52 1.08151e-52 1.09044e-52 1.09917e-52 1.10749e-52 1.11521e-52 1.12217e-52 1.12835e-52 1.13391e-52 1.13925e-52 1.14495e-52 1.15174e-52 1.16038e-52 1.17158e-52 1.18577e-52 1.20308e-52 1.22318e-52 1.24529e-52 1.26814e-52 1.29009e-52 1.30923e-52 1.32351e-52 1.33094e-52 1.32971e-52 1.31834e-52 1.29577e-52 1.26148e-52 1.21544e-52 1.15819e-52 1.09074e-52 1.01458e-52 9.31526e-53 8.43698e-53 7.53352e-53 6.62779e-53 5.74178e-53 4.89539e-53 4.10542e-53 3.38485e-53 2.74239e-53 2.18244e-53 1.70533e-53 1.30792e-53 9.84312e-54 7.2669e-54 5.26186e-54 3.73617e-54 2.60107e-54 1.77529e-54 1.18781e-54 7.79057e-55 5.00873e-55 3.15665e-55 1.9502e-55 1.18116e-55 7.01365e-56 4.08341e-56 2.33126e-56 1.30525e-56 7.1678e-57 3.86125e-57 2.0407e-57 1.0583e-57 5.3862e-58 2.69074e-58 1.31962e-58 6.35463e-59 3.00518e-59 1.39594e-59 6.37028e-60 2.85642e-60 1.25875e-60 5.4524e-61 2.32192e-61 9.72293e-62 4.00421e-62 1.62213e-62 6.46519e-63 2.53561e-63 9.78734e-64 3.71883e-64 1.39118e-64 5.1247e-65 1.85925e-65 6.64445e-66 2.33917e-66 8.10624e-67 2.7424e-67 8.33546e-68 0 
0 2.34594e-93 1.21241e-92 5.98147e-92 2.91907e-91 1.41099e-90 6.75512e-90 3.20285e-89 1.50384e-88 6.99179e-88 3.21856e-87 1.46684e-86 6.61779e-86 2.95539e-85 1.30631e-84 5.71441e-84 2.47369e-83 1.05956e-82 4.49028e-82 1.88253e-81 7.80713e-81 3.20239e-80 1.29911e-79 5.21146e-79 2.06713e-78 8.10636e-78 3.14255e-77 1.20417e-76 4.56029e-76 1.70666e-75 6.31095e-75 2.30561e-74 8.32082e-74 2.96606e-73 1.04417e-72 3.6298e-72 1.24582e-71 4.22118e-71 1.41174e-70 4.65969e-70 1.51768e-69 4.87705e-69 1.54606e-68 4.83419e-68 1.49066e-67 4.53237e-67 1.35861e-66 4.01433e-66 1.169e-65 3.35444e-65 9.4833e-65 2.64093e-64 7.2433e-64 1.95623e-63 5.20149e-63 1.36139e-62 3.5067e-62 8.88789e-62 2.21614e-61 5.43513e-61 1.31084e-60 3.10839e-60 7.24562e-60 1.65991e-59 3.73654e-59 8.26318e-59 1.79483e-58 3.82835e-58 8.01714e-58 1.648e-57 3.32457e-57 6.58058e-57 1.27778e-56 2.43344e-56 4.54436e-56 8.32008e-56 1.49314e-55 2.62612e-55 4.52574e-55 7.64102e-55 1.26366e-54 2.04672e-54 3.24623e-54 5.04122e-54 7.66446e-54 1.14071e-53 1.66185e-53 2.36977e-53 3.3076e-53 4.51872e-53 6.04276e-53 7.91063e-53 1.01391e-52 1.27258e-52 1.56448e-52 1.88453e-52 2.22515e-52 2.57669e-52 2.92809e-52 3.26786e-52 3.58518e-52 3.87094e-52 4.11877e-52 4.32565e-52 4.4922e-52 4.62247e-52 4.72342e-52 4.80389e-52 4.87354e-52 4.94161e-52 5.01591e-52 5.10194e-52 5.20246e-52 5.31741e-52 5.44425e-52 5.57856e-52 5.71487e-52 5.84759e-52 5.9718e-52 6.08393e-52 6.18211e-52 6.26628e-52 6.33798e-52 6.39994e-52 6.45551e-52 6.50811e-52 6.56061e-52 6.61497e-52 6.67194e-52 6.73095e-52 6.79017e-52 6.8467e-52 6.89685e-52 6.93645e-52 6.96123e-52 6.9672e-52 6.95093e-52 6.90989e-52 6.84268e-52 6.74917e-52 6.63056e-52 6.48937e-52 6.32929e-52 6.15502e-52 5.97203e-52 5.78621e-52 5.60364e-52 5.43025e-52 5.27154e-52 5.13226e-52 5.01615e-52 4.92576e-52 4.8622e-52 4.82513e-52 4.81281e-52 4.82223e-52 4.84946e-52 4.89005e-52 4.9395e-52 4.9937e-52 5.04928e-52 5.1039e-52 5.15624e-52 5.20595e-52 5.25341e-52 5.29932e-52 5.34441e-52 5.38912e-52 5.43338e-52 5.47662e-52 5.5179e-52 5.55618e-52 5.59068e-52 5.6213e-52 5.64887e-52 5.67529e-52 5.70348e-52 5.73707e-52 5.77988e-52 5.8353e-52 5.90563e-52 5.99143e-52 6.09112e-52 6.20076e-52 6.31412e-52 6.42304e-52 6.51803e-52 6.58895e-52 6.62588e-52 6.61982e-52 6.56342e-52 6.45145e-52 6.2812e-52 6.05257e-52 5.76814e-52 5.43297e-52 5.05435e-52 4.64138e-52 4.2045e-52 3.75494e-52 3.3041e-52 2.86293e-52 2.44135e-52 2.04775e-52 1.68861e-52 1.36832e-52 1.08909e-52 8.51109e-53 6.52842e-53 4.91361e-53 3.62788e-53 2.62706e-53 1.86542e-53 1.29871e-53 8.86409e-54 5.93074e-54 3.88973e-54 2.50069e-54 1.57592e-54 9.73541e-55 5.89583e-55 3.50055e-55 2.03782e-55 1.16326e-55 6.51209e-56 3.57561e-56 1.92585e-56 1.01766e-56 5.27664e-57 2.68506e-57 1.3411e-57 6.57594e-58 3.16602e-58 1.49695e-58 6.95213e-59 3.17191e-59 1.42199e-59 6.26505e-60 2.71321e-60 1.15519e-60 4.83633e-61 1.99135e-61 8.06546e-62 3.21394e-62 1.26024e-62 4.86353e-63 1.84761e-63 6.91043e-64 2.54513e-64 9.23211e-65 3.29872e-65 1.16111e-65 4.02307e-66 1.36082e-66 4.13564e-67 0 
0 1.14522e-92 5.91852e-92 2.91985e-91 1.42491e-90 6.88745e-90 3.29731e-89 1.56336e-88 7.3404e-88 3.41275e-87 1.571e-86 7.15976e-86 3.23022e-85 1.44257e-84 6.37641e-84 2.78938e-83 1.20751e-82 5.17228e-82 2.19201e-81 9.19024e-81 3.81146e-80 1.56348e-79 6.34285e-79 2.54461e-78 1.00938e-77 3.95857e-77 1.5347e-76 5.88111e-76 2.22739e-75 8.33653e-75 3.08298e-74 1.12642e-73 4.06559e-73 1.44938e-72 5.10292e-72 1.7741e-71 6.08981e-71 2.06364e-70 6.90257e-70 2.27862e-69 7.42257e-69 2.38559e-68 7.56365e-68 2.36535e-67 7.29493e-67 2.2184e-66 6.65095e-66 1.96554e-65 5.72481e-65 1.64305e-64 4.64595e-64 1.29408e-63 3.55e-63 9.58966e-63 2.55038e-62 6.67659e-62 1.72017e-61 4.36083e-61 1.0876e-60 2.668e-60 6.43623e-60 1.52659e-59 3.55934e-59 8.15616e-59 1.83646e-58 4.06228e-58 8.82587e-58 1.88302e-57 3.94435e-57 8.11006e-57 1.63649e-56 3.24005e-56 6.2929e-56 1.19873e-55 2.23914e-55 4.10053e-55 7.36064e-55 1.29487e-54 2.23202e-54 3.76922e-54 6.23475e-54 1.01003e-53 1.60226e-53 2.48865e-53 3.78424e-53 5.63299e-53 8.20752e-53 1.17052e-52 1.63392e-52 2.23241e-52 2.98556e-52 3.90865e-52 5.00997e-52 6.28827e-52 7.7308e-52 9.31229e-52 1.09952e-51 1.27319e-51 1.44676e-51 1.61455e-51 1.7712e-51 1.91223e-51 2.03448e-51 2.13645e-51 2.21847e-51 2.28254e-51 2.33209e-51 2.37151e-51 2.40556e-51 2.4388e-51 2.4751e-51 2.51717e-51 2.56638e-51 2.62271e-51 2.6849e-51 2.75079e-51 2.81767e-51 2.88281e-51 2.94377e-51 2.9988e-51 3.04699e-51 3.08828e-51 3.12345e-51 3.15384e-51 3.18108e-51 3.20687e-51 3.23261e-51 3.25928e-51 3.28723e-51 3.31618e-51 3.34525e-51 3.37301e-51 3.39765e-51 3.41711e-51 3.42931e-51 3.43227e-51 3.42433e-51 3.40422e-51 3.37127e-51 3.32541e-51 3.26721e-51 3.19792e-51 3.11935e-51 3.03381e-51 2.94398e-51 2.85276e-51 2.76313e-51 2.678e-51 2.60008e-51 2.53171e-51 2.47472e-51 2.43036e-51 2.39918e-51 2.38102e-51 2.37502e-51 2.3797e-51 2.39311e-51 2.41309e-51 2.43741e-51 2.46404e-51 2.49133e-51 2.51814e-51 2.54382e-51 2.56819e-51 2.59145e-51 2.61395e-51 2.63605e-51 2.65797e-51 2.67968e-51 2.70089e-51 2.72115e-51 2.73993e-51 2.75686e-51 2.77188e-51 2.78539e-51 2.79833e-51 2.81214e-51 2.82858e-51 2.84955e-51 2.87672e-51 2.9112e-51 2.95329e-51 3.00222e-51 3.05604e-51 3.1117e-51 3.1652e-51 3.21187e-51 3.24673e-51 3.2649e-51 3.26196e-51 3.23428e-51 3.1793e-51 3.09564e-51 2.98327e-51 2.84343e-51 2.67859e-51 2.49231e-51 2.28906e-51 2.07398e-51 1.85257e-51 1.63045e-51 1.41301e-51 1.20516e-51 1.01105e-51 8.33872e-52 6.75813e-52 5.37978e-52 4.2048e-52 3.22566e-52 2.42803e-52 1.79284e-52 1.29833e-52 9.21958e-53 6.41887e-53 4.38109e-53 2.93125e-53 1.92243e-53 1.23586e-53 7.78781e-54 4.81062e-54 2.91307e-54 1.7294e-54 1.00663e-54 5.74544e-55 3.2159e-55 1.76548e-55 9.50746e-56 5.02306e-56 2.60401e-56 1.32482e-56 6.61576e-57 3.2433e-57 1.56119e-57 7.38003e-58 3.4267e-58 1.5631e-58 7.00596e-59 3.08604e-59 1.33619e-59 5.68779e-60 2.38074e-60 9.80055e-61 3.96862e-61 1.58109e-61 6.19843e-62 2.39161e-62 9.08368e-63 3.3968e-63 1.25081e-63 4.53627e-64 1.62055e-64 5.70307e-65 1.97568e-65 6.6817e-66 2.03034e-66 0 
0 5.5374e-92 2.86166e-91 1.41174e-90 6.8893e-90 3.32996e-89 1.59417e-88 7.55841e-88 3.54886e-87 1.64996e-86 7.59531e-86 3.46155e-85 1.56174e-84 6.9746e-84 3.08294e-83 1.34867e-82 5.83848e-82 2.50095e-81 1.05994e-80 4.44407e-80 1.84317e-79 7.56112e-79 3.06761e-78 1.23073e-77 4.88227e-77 1.91485e-76 7.42421e-76 2.84525e-75 1.07769e-74 4.03384e-74 1.49192e-73 5.45152e-73 1.96781e-72 7.01597e-72 2.47044e-71 8.58986e-71 2.94894e-70 9.99431e-70 3.3434e-69 1.10385e-68 3.59631e-68 1.15602e-67 3.66581e-67 1.14658e-66 3.53676e-66 1.07573e-65 3.22571e-65 9.53464e-65 2.77759e-64 7.97341e-64 2.25506e-63 6.28253e-63 1.72384e-62 4.65766e-62 1.23899e-61 3.24428e-61 8.36059e-61 2.12003e-60 5.28868e-60 1.29769e-59 3.13132e-59 7.42899e-59 1.73257e-58 3.97119e-58 8.944e-58 1.97895e-57 4.30069e-57 9.17812e-57 1.92304e-56 3.95507e-56 7.98287e-56 1.58093e-55 3.07133e-55 5.8521e-55 1.0934e-54 2.00285e-54 3.59609e-54 6.32771e-54 1.09098e-53 1.84276e-53 3.04879e-53 4.94003e-53 7.83814e-53 1.21765e-52 1.85187e-52 2.75701e-52 4.01766e-52 5.73052e-52 8.00008e-52 1.09314e-51 1.46206e-51 1.91422e-51 2.45369e-51 3.07984e-51 3.7864e-51 4.56097e-51 5.38514e-51 6.23548e-51 7.0852e-51 7.90643e-51 8.67291e-51 9.36265e-51 9.96022e-51 1.04584e-50 1.08586e-50 1.11708e-50 1.14118e-50 1.1603e-50 1.17678e-50 1.19287e-50 1.21043e-50 1.23081e-50 1.25468e-50 1.28203e-50 1.31225e-50 1.34427e-50 1.3768e-50 1.40847e-50 1.43813e-50 1.46489e-50 1.48832e-50 1.5084e-50 1.52549e-50 1.54026e-50 1.55349e-50 1.56602e-50 1.57853e-50 1.59149e-50 1.60508e-50 1.61916e-50 1.6333e-50 1.64681e-50 1.6588e-50 1.66828e-50 1.67423e-50 1.67569e-50 1.67185e-50 1.66209e-50 1.64608e-50 1.62379e-50 1.59549e-50 1.5618e-50 1.52358e-50 1.48198e-50 1.43827e-50 1.39389e-50 1.35029e-50 1.30887e-50 1.27096e-50 1.2377e-50 1.20998e-50 1.18841e-50 1.17326e-50 1.16444e-50 1.16155e-50 1.16385e-50 1.1704e-50 1.18014e-50 1.19199e-50 1.20496e-50 1.21824e-50 1.23128e-50 1.24376e-50 1.2556e-50 1.2669e-50 1.27783e-50 1.28856e-50 1.29921e-50 1.30976e-50 1.32007e-50 1.32992e-50 1.33905e-50 1.34728e-50 1.35458e-50 1.36115e-50 1.36743e-50 1.37413e-50 1.3821e-50 1.39228e-50 1.40547e-50 1.42223e-50 1.44269e-50 1.46649e-50 1.49267e-50 1.51976e-50 1.5458e-50 1.56852e-50 1.58551e-50 1.59437e-50 1.59296e-50 1.57951e-50 1.55275e-50 1.51202e-50 1.45729e-50 1.38916e-50 1.30882e-50 1.218e-50 1.11887e-50 1.01393e-50 9.05859e-51 7.97404e-51 6.91199e-51 5.8964e-51 4.94757e-51 4.08129e-51 3.30823e-51 2.6339e-51 2.05891e-51 1.57966e-51 1.18916e-51 8.78141e-52 6.35968e-52 4.51627e-52 3.1444e-52 2.14616e-52 1.4359e-52 9.4169e-53 6.05347e-53 3.81434e-53 2.35596e-53 1.4265e-53 8.46771e-54 4.92817e-54 2.81239e-54 1.57394e-54 8.63923e-55 4.65157e-55 2.4571e-55 1.27354e-55 6.47797e-56 3.23424e-56 1.58522e-56 7.62889e-57 3.60553e-57 1.67375e-57 7.63312e-58 3.42047e-58 1.50633e-58 6.52059e-59 2.77501e-59 1.16127e-59 4.77943e-60 1.93494e-60 7.70707e-61 3.02078e-61 1.16529e-61 4.425e-62 1.65436e-62 6.09064e-63 2.20843e-63 7.88789e-64 2.77539e-64 9.61283e-65 3.25046e-65 9.87562e-66 0 
0 2.65185e-91 1.37042e-90 6.76056e-90 3.2991e-89 1.59461e-88 7.6339e-88 3.61943e-87 1.6994e-86 7.90099e-86 3.63712e-85 1.65762e-84 7.47876e-84 3.34002e-83 1.4764e-82 6.45886e-82 2.79616e-81 1.1978e-80 5.07662e-80 2.1286e-79 8.82875e-79 3.62196e-78 1.46954e-77 5.89618e-77 2.33916e-76 9.17495e-76 3.55757e-75 1.36351e-74 5.16499e-74 1.93346e-73 7.15161e-73 2.6135e-72 9.43486e-72 3.36426e-71 1.18476e-70 4.11998e-70 1.4146e-69 4.7949e-69 1.60427e-68 5.29742e-68 1.72615e-67 5.54955e-67 1.76009e-66 5.50614e-66 1.69873e-65 5.16775e-65 1.54992e-64 4.58219e-64 1.33514e-63 3.83348e-63 1.08443e-62 3.02185e-62 8.29344e-62 2.24133e-61 5.96363e-61 1.56195e-60 4.02617e-60 1.02119e-59 2.54815e-59 6.25406e-59 1.5095e-58 3.58222e-58 8.35662e-58 1.91593e-57 4.3163e-57 9.55292e-57 2.07664e-56 4.43302e-56 9.29089e-56 1.91137e-55 3.85897e-55 7.64444e-55 1.48552e-54 2.83128e-54 5.29136e-54 9.69504e-54 1.74118e-53 3.06456e-53 5.28498e-53 8.92886e-53 1.47759e-52 2.39468e-52 3.80031e-52 5.90488e-52 8.98207e-52 1.33744e-51 1.94927e-51 2.78068e-51 3.8824e-51 5.30551e-51 7.09658e-51 9.2919e-51 1.19111e-50 1.49511e-50 1.83813e-50 2.21413e-50 2.61417e-50 3.02685e-50 3.43913e-50 3.8375e-50 4.20918e-50 4.5435e-50 4.83298e-50 5.07409e-50 5.26761e-50 5.41833e-50 5.53443e-50 5.62633e-50 5.70536e-50 5.7824e-50 5.86659e-50 5.96441e-50 6.07911e-50 6.21067e-50 6.35614e-50 6.51041e-50 6.66712e-50 6.81979e-50 6.9627e-50 7.09169e-50 7.20459e-50 7.30132e-50 7.38365e-50 7.45474e-50 7.51847e-50 7.57877e-50 7.63899e-50 7.7014e-50 7.76686e-50 7.83472e-50 7.90289e-50 7.96804e-50 8.0259e-50 8.07167e-50 8.10045e-50 8.10759e-50 8.08916e-50 8.04223e-50 7.96515e-50 7.85776e-50 7.72144e-50 7.55906e-50 7.37488e-50 7.17432e-50 6.96365e-50 6.7497e-50 6.53946e-50 6.33979e-50 6.15703e-50 5.99667e-50 5.86306e-50 5.75911e-50 5.68614e-50 5.64375e-50 5.6299e-50 5.64112e-50 5.67285e-50 5.71992e-50 5.77713e-50 5.83971e-50 5.90377e-50 5.9666e-50 6.02671e-50 6.08373e-50 6.13809e-50 6.19066e-50 6.24232e-50 6.29357e-50 6.34437e-50 6.39404e-50 6.4415e-50 6.48551e-50 6.52518e-50 6.56034e-50 6.59192e-50 6.62213e-50 6.65432e-50 6.69268e-50 6.74163e-50 6.80512e-50 6.88581e-50 6.98439e-50 7.09906e-50 7.22529e-50 7.35593e-50 7.48157e-50 7.59124e-50 7.67325e-50 7.71613e-50 7.70944e-50 7.64464e-50 7.51563e-50 7.31916e-50 7.05503e-50 6.72608e-50 6.33805e-50 5.89924e-50 5.42011e-50 4.91268e-50 4.38995e-50 3.86514e-50 3.35103e-50 2.85922e-50 2.39958e-50 1.97979e-50 1.60506e-50 1.27809e-50 9.9922e-51 7.66722e-51 5.77247e-51 4.26304e-51 3.08757e-51 2.1927e-51 1.52667e-51 1.04201e-51 6.97148e-52 4.57184e-52 2.93875e-52 1.85159e-52 1.14354e-52 6.92323e-53 4.10911e-53 2.39114e-53 1.36436e-53 7.6343e-54 4.18967e-54 2.2554e-54 1.19114e-54 6.17253e-55 3.13904e-55 1.56688e-55 7.67811e-56 3.69427e-56 1.74556e-56 8.1013e-57 3.69372e-57 1.6548e-57 7.28577e-58 3.1531e-58 1.34157e-58 5.61279e-59 2.3095e-59 9.34776e-60 3.72245e-60 1.45868e-60 5.6257e-61 2.13579e-61 7.98326e-62 2.93845e-62 1.06524e-62 3.80395e-63 1.33817e-63 4.63396e-64 1.56663e-64 4.75903e-65 0 
0 1.25773e-90 6.49957e-90 3.20632e-89 1.56464e-88 7.56257e-88 3.62043e-87 1.71653e-86 8.05954e-86 3.74712e-85 1.72495e-84 7.86162e-84 3.54702e-83 1.58413e-82 7.00259e-82 3.06354e-81 1.32631e-80 5.68176e-80 2.4082e-79 1.0098e-78 4.18853e-78 1.71843e-77 6.97265e-77 2.79779e-76 1.11003e-75 4.35425e-75 1.68849e-74 6.47206e-74 2.45185e-73 9.17917e-73 3.39561e-72 1.24103e-71 4.48072e-71 1.59792e-70 5.62794e-70 1.95737e-69 6.72158e-69 2.27867e-68 7.6251e-68 2.51827e-67 8.20706e-67 2.63901e-66 8.37134e-66 2.6193e-65 8.08251e-65 2.45928e-64 7.37737e-64 2.18151e-63 6.35774e-63 1.82585e-62 5.16621e-62 1.43994e-61 3.95285e-61 1.06853e-60 2.84381e-60 7.45018e-60 1.92091e-59 4.87343e-59 1.21638e-58 2.98625e-58 7.20973e-58 1.71144e-57 3.99358e-57 9.15878e-57 2.06393e-56 4.56927e-56 9.93574e-56 2.12161e-55 4.44786e-55 9.15307e-55 1.8485e-54 3.66287e-54 7.12001e-54 1.3574e-53 2.53755e-53 4.65068e-53 8.35464e-53 1.47084e-52 2.53719e-52 4.28757e-52 7.09693e-52 1.15044e-51 1.8261e-51 2.83795e-51 4.31767e-51 6.43014e-51 9.37316e-51 1.33729e-50 1.86735e-50 2.5521e-50 3.41394e-50 4.47034e-50 5.73071e-50 7.19353e-50 8.84402e-50 1.0653e-49 1.25775e-49 1.45623e-49 1.65449e-49 1.84599e-49 2.02461e-49 2.18519e-49 2.32415e-49 2.4398e-49 2.5325e-49 2.60459e-49 2.65999e-49 2.70373e-49 2.74126e-49 2.7778e-49 2.81777e-49 2.86427e-49 2.91887e-49 2.98158e-49 3.05097e-49 3.12459e-49 3.19942e-49 3.27232e-49 3.34057e-49 3.40217e-49 3.45608e-49 3.50225e-49 3.54154e-49 3.57545e-49 3.60585e-49 3.63461e-49 3.66334e-49 3.69312e-49 3.72436e-49 3.75677e-49 3.78934e-49 3.82047e-49 3.84813e-49 3.87003e-49 3.88382e-49 3.88728e-49 3.87853e-49 3.85617e-49 3.8194e-49 3.76815e-49 3.70306e-49 3.62552e-49 3.53756e-49 3.44177e-49 3.34114e-49 3.23893e-49 3.13849e-49 3.0431e-49 2.95579e-49 2.87919e-49 2.81538e-49 2.76575e-49 2.73092e-49 2.71072e-49 2.70417e-49 2.70959e-49 2.72481e-49 2.74736e-49 2.77473e-49 2.80465e-49 2.83526e-49 2.86527e-49 2.89395e-49 2.92114e-49 2.94706e-49 2.97213e-49 2.99676e-49 3.0212e-49 3.04544e-49 3.06915e-49 3.09181e-49 3.11282e-49 3.13176e-49 3.14854e-49 3.1636e-49 3.17799e-49 3.19332e-49 3.21159e-49 3.23492e-49 3.26519e-49 3.30369e-49 3.35075e-49 3.40552e-49 3.46583e-49 3.52826e-49 3.58833e-49 3.64078e-49 3.68004e-49 3.70059e-49 3.69746e-49 3.66655e-49 3.60493e-49 3.51102e-49 3.38471e-49 3.22734e-49 3.04163e-49 2.83155e-49 2.60207e-49 2.35893e-49 2.10837e-49 1.85671e-49 1.61008e-49 1.37406e-49 1.1534e-49 9.51795e-50 7.71775e-50 6.14653e-50 4.80607e-50 3.68825e-50 2.77708e-50 2.05107e-50 1.48561e-50 1.05508e-50 7.34614e-51 5.01399e-51 3.35449e-51 2.19975e-51 1.41389e-51 8.90764e-52 5.50081e-52 3.32991e-52 1.97612e-52 1.14976e-52 6.55933e-53 3.66964e-53 2.01351e-53 1.0837e-53 5.72214e-54 2.9646e-54 1.50731e-54 7.52216e-55 3.68518e-55 1.77267e-55 8.37395e-56 3.88545e-56 1.7711e-56 7.93259e-57 3.4917e-57 1.51074e-57 6.42623e-58 2.68791e-58 1.10572e-58 4.47434e-59 1.78133e-59 6.97862e-60 2.69082e-60 1.02133e-60 3.81669e-61 1.40452e-61 5.09049e-62 1.81741e-62 6.39201e-63 2.21304e-63 7.48029e-64 2.27197e-64 0 
0 5.90726e-90 3.05264e-89 1.50589e-88 7.34847e-88 3.55181e-87 1.70035e-86 8.06181e-86 3.78524e-85 1.75989e-84 8.10159e-84 3.69243e-83 1.66599e-82 7.44069e-82 3.28922e-81 1.43904e-80 6.23035e-80 2.66912e-79 1.13136e-78 4.74421e-78 1.96796e-77 8.07447e-77 3.2765e-76 1.3148e-75 5.21692e-75 2.04658e-74 7.93692e-74 3.04254e-73 1.15274e-72 4.31606e-72 1.5968e-71 5.83669e-71 2.10758e-70 7.51705e-70 2.64789e-69 9.21058e-69 3.16336e-68 1.07257e-67 3.58971e-67 1.18574e-66 3.865e-66 1.24302e-65 3.9438e-65 1.23421e-64 3.80922e-64 1.15928e-63 3.47835e-63 1.02878e-62 2.99894e-62 8.61451e-62 2.43803e-61 6.79703e-61 1.86635e-60 5.0464e-60 1.34341e-59 3.52038e-59 9.07919e-59 2.30407e-58 5.75247e-58 1.41265e-57 3.41157e-57 8.10073e-57 1.89085e-56 4.33773e-56 9.77805e-56 2.16539e-55 4.71003e-55 1.00606e-54 2.10981e-54 4.34303e-54 8.77364e-54 1.73906e-53 3.38146e-53 6.44854e-53 1.20586e-52 2.21067e-52 3.97244e-52 6.99544e-52 1.20703e-51 2.04027e-51 3.37796e-51 5.47707e-51 8.69577e-51 1.35169e-50 2.05687e-50 3.06376e-50 4.46673e-50 6.37369e-50 8.90119e-50 1.21665e-49 1.62765e-49 2.13146e-49 2.73253e-49 3.43013e-49 4.21719e-49 5.07975e-49 5.9972e-49 6.9433e-49 7.88807e-49 8.8004e-49 9.65098e-49 1.04153e-48 1.10763e-48 1.16258e-48 1.20658e-48 1.24073e-48 1.26692e-48 1.28753e-48 1.30517e-48 1.32234e-48 1.34113e-48 1.36302e-48 1.38877e-48 1.41838e-48 1.45117e-48 1.48599e-48 1.52138e-48 1.55588e-48 1.58817e-48 1.61732e-48 1.64282e-48 1.66466e-48 1.68323e-48 1.69926e-48 1.71363e-48 1.72722e-48 1.74079e-48 1.75487e-48 1.76965e-48 1.78499e-48 1.8004e-48 1.81514e-48 1.82825e-48 1.83863e-48 1.84518e-48 1.84684e-48 1.84273e-48 1.83217e-48 1.81479e-48 1.79055e-48 1.75977e-48 1.72308e-48 1.68146e-48 1.63612e-48 1.58849e-48 1.54011e-48 1.49257e-48 1.44742e-48 1.40609e-48 1.36984e-48 1.33964e-48 1.31616e-48 1.2997e-48 1.29016e-48 1.28709e-48 1.28968e-48 1.29692e-48 1.30762e-48 1.3206e-48 1.33477e-48 1.34926e-48 1.36346e-48 1.37702e-48 1.38987e-48 1.40211e-48 1.41395e-48 1.42559e-48 1.43714e-48 1.44859e-48 1.45981e-48 1.47053e-48 1.48047e-48 1.48943e-48 1.49736e-48 1.50448e-48 1.51127e-48 1.5185e-48 1.52712e-48 1.53813e-48 1.55244e-48 1.57064e-48 1.5929e-48 1.61881e-48 1.64737e-48 1.67693e-48 1.70539e-48 1.73026e-48 1.74888e-48 1.75865e-48 1.7572e-48 1.74259e-48 1.71343e-48 1.66896e-48 1.60912e-48 1.53452e-48 1.44646e-48 1.3468e-48 1.23789e-48 1.12246e-48 1.00345e-48 8.83863e-49 7.66623e-49 6.54383e-49 5.49407e-49 4.53464e-49 3.67762e-49 2.92939e-49 2.29087e-49 1.75826e-49 1.32403e-49 9.77971e-50 7.08397e-50 5.03121e-50 3.5031e-50 2.39097e-50 1.59958e-50 1.04889e-50 6.74129e-51 4.24668e-51 2.62221e-51 1.58715e-51 9.41751e-52 5.4785e-52 3.12492e-52 1.74792e-52 9.58884e-53 5.15979e-53 2.72387e-53 1.41089e-53 7.17182e-54 3.57819e-54 1.75256e-54 8.42816e-55 3.98037e-55 1.84639e-55 8.41416e-56 3.76763e-56 1.65797e-56 7.17159e-57 3.04977e-57 1.2753e-57 5.2448e-58 2.12178e-58 8.44511e-59 3.30767e-59 1.27505e-59 4.8384e-60 1.80767e-60 6.65055e-61 2.40984e-61 8.60169e-62 3.02462e-62 1.04696e-62 3.5381e-63 1.07444e-63 0 
0 2.7473e-89 1.41968e-88 7.00333e-88 3.41748e-87 1.6518e-86 7.90766e-86 3.74924e-85 1.76039e-84 8.18477e-84 3.7679e-83 1.71732e-82 7.74861e-82 3.4608e-81 1.52993e-80 6.69375e-80 2.89819e-79 1.24167e-78 5.26332e-78 2.20724e-77 9.1565e-77 3.75713e-76 1.5247e-75 6.11881e-75 2.42806e-74 9.52603e-74 3.69468e-73 1.41647e-72 5.3672e-72 2.00979e-71 7.43645e-71 2.71854e-70 9.81773e-70 3.50214e-69 1.23381e-68 4.2924e-68 1.47445e-67 5.00008e-67 1.67373e-66 5.52954e-66 1.80272e-65 5.79885e-65 1.84019e-64 5.76002e-64 1.77812e-63 5.41261e-63 1.62439e-62 4.80551e-62 1.40115e-61 4.02581e-61 1.13965e-60 3.17805e-60 8.72867e-60 2.36077e-59 6.28635e-59 1.64779e-58 4.25093e-58 1.07909e-57 2.69492e-57 6.62e-57 1.59922e-56 3.79851e-56 8.86913e-56 2.03528e-55 4.58936e-55 1.01666e-54 2.21209e-54 4.72654e-54 9.91526e-54 2.04171e-53 4.12592e-53 8.18077e-53 1.59119e-52 3.0354e-52 5.67786e-52 1.04122e-51 1.87157e-51 3.29677e-51 5.69e-51 9.62055e-51 1.59323e-50 2.58392e-50 4.10337e-50 6.37976e-50 9.71005e-50 1.44661e-49 2.1094e-49 3.01041e-49 4.20475e-49 5.74786e-49 7.69029e-49 1.00713e-48 1.29121e-48 1.6209e-48 1.99284e-48 2.40041e-48 2.83385e-48 3.28074e-48 3.72689e-48 4.15757e-48 4.55893e-48 4.9194e-48 5.23089e-48 5.48963e-48 5.6965e-48 5.85676e-48 5.97932e-48 6.07551e-48 6.15763e-48 6.23745e-48 6.32491e-48 6.427e-48 6.54728e-48 6.68575e-48 6.83928e-48 7.00238e-48 7.16827e-48 7.32997e-48 7.48137e-48 7.61799e-48 7.73752e-48 7.83984e-48 7.92685e-48 8.0019e-48 8.06913e-48 8.13275e-48 8.19633e-48 8.26227e-48 8.33152e-48 8.40341e-48 8.4757e-48 8.54487e-48 8.6064e-48 8.65518e-48 8.68599e-48 8.69391e-48 8.67474e-48 8.62534e-48 8.54397e-48 8.43043e-48 8.28615e-48 8.11418e-48 7.91903e-48 7.70645e-48 7.4831e-48 7.25622e-48 7.03326e-48 6.82151e-48 6.6277e-48 6.45769e-48 6.31611e-48 6.20606e-48 6.12895e-48 6.08435e-48 6.07007e-48 6.08241e-48 6.11649e-48 6.1668e-48 6.22776e-48 6.2943e-48 6.36227e-48 6.4288e-48 6.49233e-48 6.55248e-48 6.60977e-48 6.66516e-48 6.7196e-48 6.77368e-48 6.82733e-48 6.87987e-48 6.9301e-48 6.97671e-48 7.01869e-48 7.05585e-48 7.08916e-48 7.12093e-48 7.15473e-48 7.19502e-48 7.24652e-48 7.31347e-48 7.39871e-48 7.50304e-48 7.62456e-48 7.75849e-48 7.89724e-48 8.03084e-48 8.14762e-48 8.23515e-48 8.28118e-48 8.2746e-48 8.20625e-48 8.06954e-48 7.86091e-48 7.58e-48 7.22972e-48 6.816e-48 6.34758e-48 5.83548e-48 5.29246e-48 4.73235e-48 4.16932e-48 3.61709e-48 3.08819e-48 2.59333e-48 2.14088e-48 1.73658e-48 1.38349e-48 1.08209e-48 8.30623e-49 6.25551e-49 4.62091e-49 3.34737e-49 2.37747e-49 1.65539e-49 1.12984e-49 7.55848e-50 4.95605e-50 3.18504e-50 2.00623e-50 1.23864e-50 7.49616e-51 4.44724e-51 2.58668e-51 1.47517e-51 8.24971e-52 4.52472e-52 2.43423e-52 1.28474e-52 6.65304e-53 3.38102e-53 1.68644e-53 8.25785e-54 3.9702e-54 1.8745e-54 8.69294e-55 3.96037e-55 1.77286e-55 7.79941e-56 3.37273e-56 1.43388e-56 5.9943e-57 2.46455e-57 9.96764e-58 3.96626e-58 1.55304e-58 5.98516e-59 2.27059e-59 8.48099e-60 3.11944e-60 1.13006e-60 4.03268e-61 1.41769e-61 4.90614e-62 1.65763e-62 5.03294e-63 0 