# vtk DataFile Version 3.0
Gray-Scott Simulation Output
ASCII
DATASET STRUCTURED_POINTS
DIMENSIONS 256 256 1
SPACING 1.0 1.0 1.0
ORIGIN 0 0 0
POINT_DATA 65536
SCALARS u double
LOOKUP_TABLE default
0 0 0 0 0 0 0 0 0 0 0 0 0 0 0 0 0 0 0 0 0 0 0 0 0 0 0 0 0 0 0 0 0 0 0 0 0 0 0 0 0 0 0 0 0 0 0 0 0 0 0 0 0 0 0 0 0 0 0 0 0 0 0 0 0 0 0 0 0 0 0 0 0 0 0 0 0 0 0 0 0 0 0 0 0 0 0 0 0 0 0 0 0 0 0 0 0 0 0 0 0 0 0 0 0 0 0 0 0 0 0 0 0 0 0 0 0 0 0 0 0 0 0 0 0 0 0 0 0 0 0 0 0 0 0 0 0 0 0 0 0 0 0 0 0 0 0 0 0 0 0 0 0 0 0 0 0 0 0 0 0 0 0 0 0 0 0 0 0 0 0 0 0 0 0 0 0 0 0 0 0 0 0 0 0 0 0 0 0 0 0 0 0 0 0 0 0 0 0 0 0 0 0 0 0 0 0 0 0 0 0 0 0 0 0 0 0 0 0 0 0 0 0 0 0 0 0 0 0 0 0 0 0 0 0 0 0 0 0 0 0 0 0 0 0 0 0 0 0 0 0 0 0 0 0 0 
0 4.62129e-184 9.71842e-183 2.01702e-181 4.14009e-180 8.40339e-179 1.68654e-177 3.34651e-176 6.56432e-175 1.27275e-173 2.43895e-172 4.61866e-171 8.64236e-170 1.59771e-168 2.91783e-167 5.26333e-166 9.37657e-165 1.6495e-163 2.86501e-162 4.91252e-161 8.31428e-160 1.38875e-158 2.28894e-157 3.72212e-156 5.97067e-155 9.44631e-154 1.47379e-152 2.26708e-151 3.43782e-150 5.13812e-149 7.56746e-148 1.09809e-146 1.56958e-145 2.20952e-144 3.06261e-143 4.17902e-142 5.6124e-141 7.41683e-140 9.64232e-139 1.23292e-137 1.55013e-136 1.91591e-135 2.32724e-134 2.77744e-133 3.25586e-132 3.74782e-131 4.23501e-130 4.6963e-129 5.10911e-128 5.45101e-127 5.70167e-126 5.84473e-125 5.86954e-124 5.77235e-123 5.55695e-122 5.2345e-121 4.82258e-120 4.34365e-119 3.82293e-118 3.28618e-117 2.75751e-116 2.25758e-115 1.80229e-114 1.4022e-113 1.0625e-112 7.83627e-112 5.62153e-111 3.91975e-110 2.65459e-109 1.74475e-108 1.112e-107 6.86654e-107 4.10424e-106 2.37228e-105 1.32463e-104 7.13744e-104 3.7069e-103 1.85339e-102 8.90931e-102 4.11187e-101 1.81934e-100 7.70511e-100 3.11823e-99 1.20371e-98 4.42374e-98 1.54462e-97 5.113e-97 1.60082e-96 4.72885e-96 1.31458e-95 3.42966e-95 8.37376e-95 1.90781e-94 4.04421e-94 7.95411e-94 1.44772e-93 2.43316e-93 3.77056e-93 5.38503e-93 7.0947e-93 8.64696e-93 9.79869e-93 1.04016e-92 1.04447e-92 1.00344e-92 9.33221e-93 8.49644e-93 7.65474e-93 6.90959e-93 6.3553e-93 6.08568e-93 6.18375e-93 6.69749e-93 7.61196e-93 8.83146e-93 1.01845e-92 1.14585e-92 1.2456e-92 1.30488e-92 1.32076e-92 1.29976e-92 1.25473e-92 1.20058e-92 1.15049e-92 1.11407e-92 1.09727e-92 1.10291e-92 1.13043e-92 1.17505e-92 1.22808e-92 1.2797e-92 1.32296e-92 1.35667e-92 1.38494e-92 1.4135e-92 1.44498e-92 1.47558e-92 1.49545e-92 1.49278e-92 1.4597e-92 1.39664e-92 1.31237e-92 1.21991e-92 1.13115e-92 1.05348e-92 9.89077e-93 9.3595e-93 8.89328e-93 8.4356e-93 7.94802e-93 7.43779e-93 6.96989e-93 6.65034e-93 6.58261e-93 6.81517e-93 7.30758e-93 7.93744e-93 8.54859e-93 9.01417e-93 9.27846e-93 9.35774e-93 9.30895e-93 9.19139e-93 9.04333e-93 8.88252e-93 8.72585e-93 8.61186e-93 8.60553e-93 8.77489e-93 9.15017e-93 9.69269e-93 1.02961e-92 1.08208e-92 1.11402e-92 1.11762e-92 1.09131e-92 1.03987e-92 9.73618e-93 9.0673e-93 8.54512e-93 8.30162e-93 8.42243e-93 8.93643e-93 9.81769e-93 1.09907e-92 1.23332e-92 1.36818e-92 1.48516e-92 1.56746e-92 1.60462e-92 1.59559e-92 1.54835e-92 1.47579e-92 1.38959e-92 1.29525e-92 1.19128e-92 1.07278e-92 9.36905e-93 7.86597e-93 6.30501e-93 4.80023e-93 3.45707e-93 2.34684e-93 1.49697e-93 8.94873e-94 5.00397e-94 2.61482e-94 1.27669e-94 5.82791e-95 2.49026e-95 9.97669e-96 3.75458e-96 1.33003e-96 4.4444e-97 1.40392e-97 4.20106e-98 1.19331e-98 3.22381e-99 8.29898e-100 2.03933e-100 4.7917e-101 1.07825e-101 2.3272e-102 4.8244e-103 9.619e-104 1.84689e-104 3.41894e-105 6.10903e-106 1.05474e-106 1.76133e-107 2.8476e-108 4.46117e-109 6.77829e-110 9.99647e-111 1.43206e-111 1.99428e-112 2.7016e-113 3.56251e-114 4.57579e-115 5.72815e-116 6.99282e-117 8.32953e-118 9.68609e-119 1.10016e-119 1.22111e-120 1.3251e-121 1.40646e-122 1.46077e-123 1.48522e-124 1.47886e-125 1.44263e-126 1.37924e-127 1.29279e-128 1.18837e-129 1.06358e-130 0 
0 9.71939e-183 2.04218e-181 4.23475e-180 8.68458e-179 1.76123e-177 3.53167e-176 7.00159e-175 1.3722e-173 2.65825e-172 5.08954e-171 9.62979e-170 1.80036e-168 3.32545e-167 6.06788e-166 1.09362e-164 1.9466e-163 3.42147e-162 5.93765e-161 1.01724e-159 1.72017e-158 2.87078e-157 4.72761e-156 7.68121e-155 1.2311e-153 1.94611e-152 3.0337e-151 4.66272e-150 7.06463e-149 1.05498e-147 1.55248e-146 2.25087e-145 3.21464e-144 4.52152e-143 6.26206e-142 8.53766e-141 1.14565e-139 1.51274e-138 1.96502e-137 2.51051e-136 3.15384e-135 3.89485e-134 4.72714e-133 5.63699e-132 6.6026e-131 7.59408e-130 8.57427e-129 9.50052e-128 1.03273e-126 1.10095e-125 1.15065e-124 1.17858e-123 1.18264e-122 1.16213e-121 1.11787e-120 1.05217e-119 9.68609e-119 8.71729e-118 7.66624e-117 6.58473e-116 5.5211e-115 4.51663e-114 3.60297e-113 2.80098e-112 2.1208e-111 1.56296e-110 1.12037e-109 7.80617e-109 5.28264e-108 3.46946e-107 2.20959e-106 1.3634e-105 8.14328e-105 4.70345e-104 2.6244e-103 1.41308e-102 7.33378e-102 3.66419e-101 1.76016e-100 8.11799e-100 3.58944e-99 1.51915e-98 6.14389e-98 2.37015e-97 8.70493e-97 3.03757e-96 1.00488e-95 3.14431e-95 9.283e-95 2.57917e-94 6.72535e-94 1.64122e-93 3.73747e-93 7.9193e-93 1.55695e-92 2.8328e-92 4.75962e-92 7.37397e-92 1.05294e-91 1.38707e-91 1.69044e-91 1.91559e-91 2.03355e-91 2.04215e-91 1.96212e-91 1.82503e-91 1.6618e-91 1.49737e-91 1.35181e-91 1.24354e-91 1.1909e-91 1.21011e-91 1.3105e-91 1.48917e-91 1.7274e-91 1.99169e-91 2.24057e-91 2.43544e-91 2.5513e-91 2.5824e-91 2.54147e-91 2.4536e-91 2.3479e-91 2.25015e-91 2.17909e-91 2.14633e-91 2.15738e-91 2.21114e-91 2.29824e-91 2.40176e-91 2.50251e-91 2.58697e-91 2.65281e-91 2.70802e-91 2.76381e-91 2.82524e-91 2.88495e-91 2.92372e-91 2.91849e-91 2.85393e-91 2.73083e-91 2.5663e-91 2.3857e-91 2.21226e-91 2.0604e-91 1.93442e-91 1.83045e-91 1.7392e-91 1.64964e-91 1.55426e-91 1.45448e-91 1.36297e-91 1.30047e-91 1.28718e-91 1.33259e-91 1.42881e-91 1.55194e-91 1.67145e-91 1.76256e-91 1.81435e-91 1.82997e-91 1.82053e-91 1.79761e-91 1.7687e-91 1.73729e-91 1.70667e-91 1.6844e-91 1.68317e-91 1.71626e-91 1.78958e-91 1.89557e-91 2.01347e-91 2.116e-91 2.17846e-91 2.18555e-91 2.13422e-91 2.03378e-91 1.90438e-91 1.77373e-91 1.67172e-91 1.62414e-91 1.64771e-91 1.74809e-91 1.9202e-91 2.1493e-91 2.41149e-91 2.67484e-91 2.90326e-91 3.06398e-91 3.13661e-91 3.11906e-91 3.0269e-91 2.88527e-91 2.71689e-91 2.53254e-91 2.32929e-91 2.09759e-91 1.83193e-91 1.53806e-91 1.23288e-91 9.38686e-92 6.76083e-92 4.5901e-92 2.92829e-92 1.75083e-92 9.79263e-93 5.11858e-93 2.49999e-93 1.14164e-93 4.88024e-94 1.95605e-94 7.36487e-95 2.6103e-95 8.72722e-96 2.75835e-96 8.25887e-97 2.34733e-97 6.34543e-98 1.63452e-98 4.01915e-99 9.44978e-100 2.12786e-100 4.59569e-101 9.53362e-102 1.90216e-102 3.65478e-103 6.77051e-104 1.21064e-104 2.0917e-105 3.49553e-106 5.65549e-107 8.86666e-108 1.3482e-108 1.98979e-109 2.85266e-110 3.97559e-111 5.38974e-112 7.1127e-113 9.14279e-114 1.14541e-114 1.39939e-115 1.66818e-116 1.94138e-117 2.20678e-118 2.45132e-119 2.66217e-120 2.82788e-121 2.93942e-122 2.99101e-123 2.98059e-124 2.90991e-125 2.78427e-126 2.61188e-127 2.40284e-128 2.15225e-129 0 
0 2.01742e-181 4.23518e-180 8.77456e-179 1.79791e-177 3.64295e-176 7.29859e-175 1.4457e-173 2.83087e-172 5.47924e-171 1.04816e-169 1.98147e-168 3.70129e-167 6.83077e-166 1.24532e-164 2.24252e-163 3.98816e-162 7.00384e-161 1.21441e-159 2.07874e-158 3.5122e-157 5.85648e-156 9.63625e-155 1.56432e-153 2.50508e-152 3.95663e-151 6.16259e-150 9.46374e-149 1.43267e-147 2.13765e-146 3.14306e-145 4.55314e-144 6.49724e-143 9.13099e-142 1.26354e-140 1.72126e-139 2.30781e-138 3.04474e-137 3.9518e-136 5.04464e-135 6.33213e-134 7.81344e-133 9.47532e-132 1.12898e-130 1.32129e-129 1.51846e-128 1.71306e-127 1.89658e-126 2.05995e-125 2.19426e-124 2.29147e-123 2.3452e-122 2.35139e-121 2.30877e-120 2.21908e-119 2.087e-118 1.91973e-117 1.72636e-116 1.51702e-115 1.30198e-114 1.09082e-113 8.91672e-113 7.10747e-112 5.52116e-111 4.1772e-110 3.0761e-109 2.20336e-108 1.53403e-107 1.03733e-106 6.80775e-106 4.33242e-105 2.67129e-104 1.59433e-103 9.20193e-103 5.13072e-102 2.7606e-101 1.43171e-100 7.14823e-100 3.43139e-99 1.58149e-98 6.98793e-98 2.9555e-97 1.1945e-96 4.60506e-96 1.69024e-95 5.89439e-95 1.94878e-94 6.09418e-94 1.79817e-93 4.99322e-93 1.30133e-92 3.17411e-92 7.22484e-92 1.53021e-91 3.00722e-91 5.46961e-91 9.1872e-91 1.42301e-90 2.03157e-90 2.67591e-90 3.26099e-90 3.69532e-90 3.92304e-90 3.93998e-90 3.78598e-90 3.52189e-90 3.20729e-90 2.89035e-90 2.60976e-90 2.4011e-90 2.29969e-90 2.33678e-90 2.53038e-90 2.87482e-90 3.33403e-90 3.84347e-90 4.32318e-90 4.69886e-90 4.92228e-90 4.98237e-90 4.90366e-90 4.73448e-90 4.53092e-90 4.34267e-90 4.20586e-90 4.14284e-90 4.16421e-90 4.26782e-90 4.4356e-90 4.63498e-90 4.82903e-90 4.99174e-90 5.11861e-90 5.22502e-90 5.33251e-90 5.45083e-90 5.56578e-90 5.64041e-90 5.63033e-90 5.50599e-90 5.2689e-90 4.95192e-90 4.60385e-90 4.26942e-90 3.97643e-90 3.73325e-90 3.53249e-90 3.35627e-90 3.18334e-90 2.99922e-90 2.80665e-90 2.63007e-90 2.50941e-90 2.48369e-90 2.57119e-90 2.75673e-90 2.99423e-90 3.22486e-90 3.4008e-90 3.50093e-90 3.53129e-90 3.51327e-90 3.46919e-90 3.4135e-90 3.35294e-90 3.29391e-90 3.25097e-90 3.2486e-90 3.31239e-90 3.45373e-90 3.65806e-90 3.88537e-90 4.08309e-90 4.20361e-90 4.21739e-90 4.11855e-90 3.92503e-90 3.67567e-90 3.42387e-90 3.22724e-90 3.13549e-90 3.18087e-90 3.37429e-90 3.70599e-90 4.1475e-90 4.65274e-90 5.16019e-90 5.6003e-90 5.91002e-90 6.05004e-90 6.01639e-90 5.83899e-90 5.56619e-90 5.24171e-90 4.88623e-90 4.49415e-90 4.04712e-90 3.53457e-90 2.96763e-90 2.37888e-90 1.81132e-90 1.3047e-90 8.85887e-91 5.65241e-91 3.38022e-91 1.89104e-91 9.88724e-92 4.83066e-92 2.20678e-92 9.43742e-93 3.78432e-93 1.42556e-93 5.05514e-94 1.69104e-94 5.34776e-95 1.60213e-95 4.5563e-96 1.23244e-96 3.17666e-97 7.81619e-98 1.83894e-98 4.14362e-99 8.95533e-100 1.85904e-100 3.71174e-101 7.13673e-102 1.32302e-102 2.3674e-103 4.09327e-104 6.84545e-105 1.10835e-105 1.73896e-106 2.64611e-107 3.90828e-108 5.60733e-109 7.82057e-110 1.06105e-110 1.40131e-111 1.80266e-112 2.26013e-113 2.76342e-114 3.29679e-115 3.83972e-116 4.36807e-117 4.85594e-118 5.27781e-119 5.61078e-120 5.83674e-121 5.94394e-122 5.92798e-123 5.79208e-124 5.54648e-125 5.20727e-126 4.79442e-127 4.29785e-128 0 
0 4.14136e-180 8.68638e-179 1.79809e-177 3.68107e-176 7.45214e-175 1.49172e-173 2.95222e-172 5.77583e-171 1.11696e-169 2.13484e-168 4.03229e-167 7.52562e-166 1.38766e-164 2.52768e-163 4.5478e-162 8.08101e-161 1.41793e-159 2.45648e-158 4.20124e-157 7.09226e-156 1.1816e-154 1.94255e-153 3.15081e-152 5.04138e-151 7.95581e-150 1.2381e-148 1.89971e-147 2.87346e-146 4.28381e-145 6.29333e-144 9.10911e-143 1.29876e-141 1.82371e-140 2.52153e-139 3.43212e-138 4.59785e-137 6.061e-136 7.86013e-135 1.00255e-133 1.25738e-132 1.55026e-131 1.87845e-130 2.23633e-129 2.61514e-128 3.00294e-127 3.38503e-126 3.74462e-125 4.0639e-124 4.32538e-123 4.51337e-122 4.6155e-121 4.62397e-120 4.53654e-119 4.35685e-118 4.09428e-117 3.76316e-116 3.38144e-115 2.96907e-114 2.54622e-113 2.13161e-112 1.74109e-111 1.38674e-110 1.07641e-109 8.13764e-109 5.98803e-108 4.28587e-107 2.98166e-106 2.01473e-105 1.32123e-104 8.40202e-104 5.17672e-103 3.0874e-102 1.78065e-101 9.9212e-101 5.33432e-100 2.76453e-99 1.37931e-98 6.61653e-98 3.0474e-97 1.3456e-96 5.68733e-96 2.29709e-95 8.85004e-95 3.24625e-94 1.13137e-93 3.73821e-93 1.16831e-92 3.44529e-92 9.56178e-92 2.49067e-91 6.07205e-91 1.38147e-90 2.92465e-90 5.74541e-90 1.04463e-89 1.75412e-89 2.71632e-89 3.87727e-89 5.1064e-89 6.22254e-89 7.05131e-89 7.48622e-89 7.51919e-89 7.22608e-89 6.72286e-89 6.12314e-89 5.51884e-89 4.98384e-89 4.58604e-89 4.3928e-89 4.46367e-89 4.83293e-89 5.48974e-89 6.36532e-89 7.33662e-89 8.25127e-89 8.96764e-89 9.3938e-89 9.50867e-89 9.35893e-89 9.03674e-89 8.64897e-89 8.29039e-89 8.02984e-89 7.90993e-89 7.95082e-89 8.14833e-89 8.46803e-89 8.84787e-89 9.21755e-89 9.52759e-89 9.76942e-89 9.97226e-89 1.01771e-88 1.04025e-88 1.06214e-88 1.07635e-88 1.07443e-88 1.05074e-88 1.00558e-88 9.45171e-89 8.78815e-89 8.15029e-89 7.59116e-89 7.12687e-89 6.7434e-89 6.40675e-89 6.07645e-89 5.7249e-89 5.35727e-89 5.0202e-89 4.78982e-89 4.74056e-89 4.90733e-89 5.26121e-89 5.71437e-89 6.15463e-89 6.49069e-89 6.68222e-89 6.74061e-89 6.70659e-89 6.62273e-89 6.5166e-89 6.40111e-89 6.28854e-89 6.20664e-89 6.20212e-89 6.32377e-89 6.59328e-89 6.98291e-89 7.4164e-89 7.79356e-89 8.02357e-89 8.05007e-89 7.86183e-89 7.49302e-89 7.0177e-89 6.53767e-89 6.16277e-89 5.98776e-89 6.07419e-89 6.44286e-89 7.07516e-89 7.91677e-89 8.87982e-89 9.847e-89 1.06858e-88 1.12761e-88 1.15432e-88 1.14793e-88 1.11416e-88 1.06218e-88 1.00033e-88 9.32528e-89 8.57716e-89 7.72402e-89 6.74586e-89 5.66394e-89 4.54044e-89 3.45737e-89 2.49054e-89 1.69125e-89 1.07926e-89 6.45533e-90 3.61224e-90 1.88918e-90 9.23308e-91 4.2195e-91 1.80524e-91 7.2421e-92 2.72942e-92 9.6837e-93 3.24112e-93 1.02555e-93 3.07421e-94 8.74798e-95 2.36772e-95 6.1067e-96 1.50352e-96 3.5397e-97 7.98119e-98 1.72609e-98 3.58563e-99 7.16402e-100 1.37842e-100 2.55716e-101 4.57901e-102 7.9229e-103 1.32596e-103 2.14845e-104 3.37332e-105 5.13687e-106 7.59278e-107 1.09018e-107 1.52163e-108 2.06603e-109 2.73066e-110 3.51544e-111 4.41098e-112 5.3974e-113 6.44418e-114 7.51129e-115 8.55157e-116 9.51419e-117 1.03489e-117 1.10106e-118 1.14631e-119 1.1683e-120 1.16609e-121 1.14028e-122 1.09281e-123 1.0268e-124 9.46159e-126 8.48842e-127 0 
0 8.40686e-179 1.76178e-177 3.64372e-176 7.45294e-175 1.5075e-173 3.01498e-172 5.96167e-171 1.16535e-169 2.25166e-168 4.29988e-167 8.11458e-166 1.51315e-164 2.78772e-163 5.07356e-162 9.12051e-161 1.61924e-159 2.83876e-158 4.91377e-157 8.39668e-156 1.41627e-154 2.35756e-153 3.87253e-152 6.27588e-151 1.00331e-149 1.58198e-148 2.45983e-147 3.77113e-146 5.69933e-145 8.48953e-144 1.24615e-142 1.8022e-141 2.5674e-140 3.60211e-139 4.97627e-138 6.7677e-137 9.05887e-136 1.19317e-134 1.54607e-133 1.97038e-132 2.46919e-131 3.04182e-130 3.68276e-129 4.38083e-128 5.1187e-127 5.87298e-126 6.61489e-125 7.31167e-124 7.9287e-123 8.43206e-122 8.79148e-121 8.98322e-120 8.99254e-119 8.81549e-118 8.45959e-117 7.9435e-116 7.29532e-115 6.55017e-114 5.74687e-113 4.92457e-112 4.11948e-111 3.36217e-110 2.67584e-109 2.07543e-108 1.56783e-107 1.1528e-106 8.2448e-106 5.73155e-105 3.86997e-104 2.53598e-103 1.61149e-102 9.92156e-102 5.91292e-101 3.40779e-100 1.89734e-99 1.01942e-98 5.27944e-98 2.63222e-97 1.2618e-96 5.80756e-96 2.56264e-95 1.08241e-94 4.36892e-94 1.68214e-93 6.1663e-93 2.14772e-92 7.09211e-92 2.21522e-91 6.52886e-91 1.81098e-90 4.71482e-90 1.14886e-89 2.6126e-89 5.52867e-89 1.08567e-88 1.97329e-88 3.31255e-88 5.12837e-88 7.31892e-88 9.63798e-88 1.1744e-87 1.33082e-87 1.41297e-87 1.41932e-87 1.36415e-87 1.26931e-87 1.15623e-87 1.04227e-87 9.41383e-88 8.66373e-88 8.29953e-88 8.43345e-88 9.13005e-88 1.03688e-87 1.202e-87 1.38516e-87 1.55765e-87 1.69275e-87 1.77316e-87 1.79487e-87 1.7667e-87 1.70601e-87 1.63296e-87 1.5654e-87 1.51632e-87 1.49376e-87 1.5015e-87 1.53874e-87 1.59899e-87 1.67055e-87 1.74021e-87 1.79864e-87 1.84423e-87 1.88247e-87 1.92109e-87 1.96356e-87 2.0048e-87 2.03155e-87 2.02792e-87 1.98329e-87 1.89819e-87 1.78434e-87 1.65922e-87 1.5389e-87 1.43337e-87 1.34569e-87 1.27324e-87 1.20963e-87 1.14723e-87 1.08084e-87 1.01143e-87 9.47784e-88 9.04275e-88 8.94941e-88 9.26378e-88 9.93139e-88 1.07866e-87 1.16179e-87 1.22528e-87 1.26151e-87 1.27262e-87 1.26627e-87 1.25049e-87 1.23049e-87 1.20871e-87 1.18747e-87 1.17202e-87 1.17117e-87 1.19411e-87 1.24494e-87 1.31842e-87 1.40019e-87 1.47135e-87 1.51476e-87 1.51981e-87 1.48435e-87 1.41483e-87 1.32522e-87 1.23471e-87 1.16401e-87 1.13099e-87 1.14727e-87 1.21678e-87 1.33599e-87 1.49466e-87 1.67622e-87 1.85854e-87 2.01665e-87 2.12794e-87 2.17831e-87 2.16633e-87 2.10273e-87 2.00479e-87 1.88817e-87 1.76027e-87 1.61909e-87 1.45805e-87 1.27341e-87 1.0692e-87 8.5715e-88 6.52723e-88 4.70232e-88 3.19355e-88 2.03824e-88 1.21934e-88 6.82473e-89 3.57028e-89 1.74549e-89 7.97982e-90 3.41542e-90 1.37078e-90 5.16871e-91 1.83473e-91 6.1441e-92 1.94518e-92 5.83429e-93 1.6612e-93 4.49892e-94 1.16107e-94 2.86047e-95 6.73872e-96 1.52043e-96 3.29043e-97 6.83992e-98 1.36754e-98 2.63311e-99 4.88823e-100 8.7594e-101 1.5167e-101 2.54016e-102 4.11881e-103 6.47177e-104 9.86246e-105 1.45885e-105 2.0962e-106 2.928e-107 3.97858e-108 5.26248e-109 6.78009e-110 8.51383e-111 1.04258e-111 1.24575e-112 1.45317e-113 1.65572e-114 1.84355e-115 2.00687e-116 2.13687e-117 2.22646e-118 2.27097e-119 2.2685e-120 2.22006e-121 2.12935e-122 2.00235e-123 1.84658e-124 1.65798e-125 0 
0 1.68742e-177 3.53316e-176 7.30092e-175 1.49204e-173 3.01531e-172 6.02537e-171 1.19039e-169 2.32488e-168 4.48819e-167 8.56347e-166 1.61467e-164 3.00833e-163 5.53757e-162 1.00696e-160 1.80861e-159 3.20821e-158 5.61966e-157 9.71908e-156 1.65939e-154 2.7965e-153 4.65117e-152 7.63354e-151 1.23606e-149 1.97438e-148 3.11051e-147 4.83247e-146 7.40235e-145 1.11778e-143 1.66361e-142 2.43992e-141 3.52569e-140 5.01849e-139 7.03518e-138 9.71094e-137 1.31959e-135 1.76487e-134 2.32265e-133 3.00713e-132 3.82925e-131 4.7947e-130 5.90181e-129 7.13954e-128 8.48593e-127 9.90717e-126 1.13579e-124 1.27823e-123 1.41173e-122 1.52964e-121 1.62544e-120 1.69337e-119 1.72892e-118 1.72934e-117 1.69394e-116 1.62427e-115 1.52398e-114 1.39852e-113 1.25469e-112 1.09996e-111 9.4184e-111 7.87253e-110 6.42032e-109 5.10579e-108 3.95712e-107 2.98702e-106 2.19465e-105 1.56843e-104 1.08951e-103 7.35091e-103 4.81346e-102 3.05647e-101 1.88042e-100 1.11985e-99 6.44937e-99 3.58823e-98 1.92654e-97 9.97028e-97 4.96752e-96 2.37963e-95 1.0945e-94 4.82634e-94 2.0372e-93 8.21738e-93 3.16186e-92 1.15833e-91 4.03197e-91 1.33062e-90 4.15378e-90 1.22354e-89 3.39203e-89 8.82644e-89 2.14969e-88 4.8863e-88 1.03358e-87 2.02887e-87 3.68637e-87 6.18651e-87 9.57548e-87 1.36632e-86 1.79904e-86 2.19203e-86 2.484e-86 2.63749e-86 2.64958e-86 2.54687e-86 2.37011e-86 2.15928e-86 1.94675e-86 1.75859e-86 1.61871e-86 1.55082e-86 1.57584e-86 1.7058e-86 1.93686e-86 2.24481e-86 2.58639e-86 2.90807e-86 3.16007e-86 3.31008e-86 3.35069e-86 3.29828e-86 3.18523e-86 3.04911e-86 2.92324e-86 2.83182e-86 2.78983e-86 2.80431e-86 2.87375e-86 2.98604e-86 3.1194e-86 3.2492e-86 3.3581e-86 3.44309e-86 3.5144e-86 3.58637e-86 3.66551e-86 3.74232e-86 3.79215e-86 3.78538e-86 3.70223e-86 3.54364e-86 3.33143e-86 3.09814e-86 2.87366e-86 2.67667e-86 2.51293e-86 2.37758e-86 2.25871e-86 2.14213e-86 2.01812e-86 1.8885e-86 1.76966e-86 1.68839e-86 1.67089e-86 1.7295e-86 1.85406e-86 2.01369e-86 2.1689e-86 2.28754e-86 2.35534e-86 2.37624e-86 2.36452e-86 2.33515e-86 2.29787e-86 2.25724e-86 2.21762e-86 2.18879e-86 2.1872e-86 2.22999e-86 2.32479e-86 2.46186e-86 2.61439e-86 2.74715e-86 2.82821e-86 2.8377e-86 2.77165e-86 2.64206e-86 2.47498e-86 2.3062e-86 2.17435e-86 2.11276e-86 2.14309e-86 2.27266e-86 2.49494e-86 2.79079e-86 3.12928e-86 3.46917e-86 3.76392e-86 3.97139e-86 4.06535e-86 4.04313e-86 3.92467e-86 3.74217e-86 3.52474e-86 3.28613e-86 3.02261e-86 2.722e-86 2.37734e-86 1.99614e-86 1.60031e-86 1.21872e-86 8.78052e-87 5.96389e-87 3.80691e-87 2.27784e-87 1.27521e-87 6.67299e-88 3.26344e-88 1.49249e-88 6.39055e-89 2.56599e-89 9.67999e-90 3.43783e-90 1.15186e-90 3.64874e-91 1.09501e-91 3.11967e-92 8.45394e-93 2.18312e-93 5.38188e-94 1.26869e-94 2.86437e-95 6.20306e-96 1.29033e-96 2.58159e-97 4.97413e-98 9.24068e-99 1.65705e-99 2.87124e-100 4.81221e-101 7.80856e-102 1.22784e-102 1.87251e-103 2.77186e-104 3.98582e-105 5.57163e-106 7.57647e-107 1.0029e-107 1.29311e-108 1.62502e-109 1.99149e-110 2.38141e-111 2.78008e-112 3.17006e-113 3.53244e-114 3.84842e-115 4.10094e-116 4.27627e-117 4.36522e-118 4.36396e-119 4.27418e-120 4.10283e-121 3.86124e-122 3.56374e-123 3.20229e-124 0 
0 3.34863e-176 7.00533e-175 1.44632e-173 2.95318e-172 5.96298e-171 1.19052e-169 2.34999e-168 4.58567e-167 8.84499e-166 1.68617e-164 3.17659e-163 5.91328e-162 1.08755e-160 1.97591e-159 3.54592e-158 6.28458e-157 1.0999e-155 1.90063e-154 3.24227e-153 5.45942e-152 9.07248e-151 1.48772e-149 2.40695e-148 3.84142e-147 6.04681e-146 9.38639e-145 1.43659e-143 2.16749e-142 3.22321e-141 4.72334e-140 6.81954e-139 9.69891e-138 1.35851e-136 1.87366e-135 2.54394e-134 3.39955e-133 4.47028e-132 5.78291e-131 7.35787e-130 9.20544e-129 1.13217e-127 1.3685e-126 1.62525e-125 1.89591e-124 2.17176e-123 2.44216e-122 2.69506e-121 2.9178e-120 3.09806e-119 3.22496e-118 3.29004e-117 3.28822e-116 3.21837e-115 3.08357e-114 2.89089e-113 2.65083e-112 2.37635e-111 2.08167e-110 1.78105e-109 1.48757e-108 1.21223e-107 9.63295e-107 7.46009e-106 5.62696e-105 4.13116e-104 2.95016e-103 2.0478e-102 1.38062e-101 9.03378e-101 5.7321e-100 3.52396e-99 2.09711e-98 1.20689e-97 6.70996e-97 3.60006e-96 1.86181e-95 9.26973e-95 4.43751e-94 2.03963e-93 8.98797e-93 3.79132e-92 1.5283e-91 5.87681e-91 2.15159e-90 7.48477e-90 2.46864e-89 7.70183e-89 2.26739e-88 6.28249e-88 1.63394e-87 3.97753e-87 9.0369e-87 1.91074e-86 3.74926e-86 6.80994e-86 1.14252e-85 1.76799e-85 2.52229e-85 3.32075e-85 4.04594e-85 4.58487e-85 4.86843e-85 4.89121e-85 4.70217e-85 4.37641e-85 3.98766e-85 3.59573e-85 3.24871e-85 2.99077e-85 2.86563e-85 2.91187e-85 3.15162e-85 3.57778e-85 4.1457e-85 4.77563e-85 5.36886e-85 5.83366e-85 6.11045e-85 6.18552e-85 6.0891e-85 5.88087e-85 5.63008e-85 5.39818e-85 5.2298e-85 5.15252e-85 5.17931e-85 5.30735e-85 5.51429e-85 5.76002e-85 5.9992e-85 6.1999e-85 6.35658e-85 6.48804e-85 6.62071e-85 6.76651e-85 6.908e-85 6.99976e-85 6.98726e-85 6.83407e-85 6.54185e-85 6.15073e-85 5.72057e-85 5.30646e-85 4.94287e-85 4.64046e-85 4.3904e-85 4.17075e-85 3.95536e-85 3.72632e-85 3.48695e-85 3.26749e-85 3.11738e-85 3.08496e-85 3.19299e-85 3.4228e-85 3.71743e-85 4.00405e-85 4.22328e-85 4.34873e-85 4.3876e-85 4.36621e-85 4.31217e-85 4.24345e-85 4.16851e-85 4.09541e-85 4.04224e-85 4.03929e-85 4.11821e-85 4.29305e-85 4.54586e-85 4.82722e-85 5.07219e-85 5.22182e-85 5.23948e-85 5.11781e-85 4.87894e-85 4.5709e-85 4.25969e-85 4.01654e-85 3.90291e-85 3.95878e-85 4.19766e-85 4.60748e-85 5.15294e-85 5.77698e-85 6.40355e-85 6.94688e-85 7.32937e-85 7.50268e-85 7.46191e-85 7.24377e-85 6.90747e-85 6.50657e-85 6.06639e-85 5.58005e-85 5.02514e-85 4.38889e-85 3.68524e-85 2.95459e-85 2.2502e-85 1.62134e-85 1.10136e-85 7.0313e-86 4.20792e-86 2.35627e-86 1.23334e-86 6.0336e-87 2.76038e-87 1.18242e-87 4.74984e-88 1.79269e-88 6.36989e-89 2.13538e-89 6.76794e-90 2.03226e-90 5.79328e-91 1.57086e-91 4.05905e-92 1.00128e-92 2.36187e-93 5.33597e-94 1.15632e-94 2.40694e-95 4.81893e-96 9.29138e-97 1.72731e-97 3.09961e-98 5.37466e-99 9.01442e-100 1.46379e-100 2.30338e-101 3.51534e-102 5.20758e-103 7.49387e-104 1.04832e-104 1.42662e-105 1.88986e-106 2.43857e-107 3.06683e-108 3.76135e-109 4.50127e-110 5.2589e-111 6.00126e-112 6.69252e-113 7.29688e-114 7.7818e-115 8.12091e-116 8.29642e-117 8.3006e-118 8.13633e-119 7.8164e-120 7.36205e-121 6.80028e-122 6.11544e-123 0 
0 6.56923e-175 1.37309e-173 2.83242e-172 5.77837e-171 1.16574e-169 2.32541e-168 4.58619e-167 8.94155e-166 1.72319e-164 3.28217e-163 6.17801e-162 1.14906e-160 2.11149e-159 3.83297e-158 6.87267e-157 1.21703e-155 2.12818e-154 3.67436e-153 6.26275e-152 1.05365e-150 1.74947e-149 2.86638e-148 4.63353e-147 7.38874e-146 1.16209e-144 1.80238e-143 2.75625e-142 4.15506e-141 6.17371e-140 9.03949e-139 1.30403e-137 1.85308e-136 2.59344e-135 3.5739e-134 4.84843e-133 6.47377e-132 8.50576e-131 1.09943e-129 1.39771e-128 1.74725e-127 2.14718e-126 2.59327e-125 3.0773e-124 3.58688e-123 4.10545e-122 4.61288e-121 5.08648e-120 5.50245e-119 5.83773e-118 6.07199e-117 6.18961e-116 6.1813e-115 6.04522e-114 5.78744e-113 5.42156e-112 4.96747e-111 4.44965e-110 3.89485e-109 3.32979e-108 2.77897e-107 2.26287e-106 1.79681e-105 1.39045e-104 1.04799e-103 7.68826e-103 5.48625e-102 3.80534e-101 2.56366e-100 1.67623e-99 1.06282e-98 6.52924e-98 3.88276e-97 2.23292e-96 1.24056e-95 6.65124e-95 3.43737e-94 1.71024e-93 8.18149e-93 3.75795e-92 1.6549e-91 6.97616e-91 2.81031e-90 1.07997e-89 3.95147e-89 1.37377e-88 4.5283e-88 1.41196e-87 4.15444e-87 1.1505e-86 2.99065e-86 7.27671e-86 1.65251e-85 3.49256e-85 6.85053e-85 1.24387e-84 2.08629e-84 3.22767e-84 4.60396e-84 6.06072e-84 7.38391e-84 8.36754e-84 8.88556e-84 8.92798e-84 8.58397e-84 7.99036e-84 7.28166e-84 6.56699e-84 5.93421e-84 5.46391e-84 5.23584e-84 5.3203e-84 5.75762e-84 6.53478e-84 7.57037e-84 8.71898e-84 9.8007e-84 1.06483e-83 1.11533e-83 1.12905e-83 1.11152e-83 1.07359e-83 1.02791e-83 9.85664e-84 9.54998e-84 9.40937e-84 9.45839e-84 9.69182e-84 1.00689e-83 1.05166e-83 1.09523e-83 1.13181e-83 1.16036e-83 1.18433e-83 1.20851e-83 1.23507e-83 1.26083e-83 1.27754e-83 1.27526e-83 1.24736e-83 1.19412e-83 1.12284e-83 1.04442e-83 9.68885e-84 9.02529e-84 8.47311e-84 8.01629e-84 7.61499e-84 7.2215e-84 6.8032e-84 6.36614e-84 5.96542e-84 5.69124e-84 5.63181e-84 5.82873e-84 6.24797e-84 6.78568e-84 7.30901e-84 7.70956e-84 7.93909e-84 8.0106e-84 7.97202e-84 7.8737e-84 7.74845e-84 7.61177e-84 7.47842e-84 7.38142e-84 7.37603e-84 7.51994e-84 7.83878e-84 8.29982e-84 8.813e-84 9.25989e-84 9.53302e-84 9.56553e-84 9.34394e-84 8.90859e-84 8.34704e-84 7.77966e-84 7.33631e-84 7.12904e-84 7.23078e-84 7.66623e-84 8.41332e-84 9.40768e-84 1.05452e-83 1.16872e-83 1.26775e-83 1.33747e-83 1.36908e-83 1.36168e-83 1.32196e-83 1.26069e-83 1.18761e-83 1.10732e-83 1.01857e-83 9.17287e-84 8.01157e-84 6.72728e-84 5.39373e-84 4.10809e-84 2.96025e-84 2.01109e-84 1.2841e-84 7.68618e-85 4.30494e-85 2.25394e-85 1.103e-85 5.04806e-86 2.16322e-86 8.69355e-87 3.28266e-87 1.16699e-87 3.91416e-88 1.24124e-88 3.72928e-89 1.06371e-89 2.886e-90 7.46191e-91 1.84184e-91 4.34742e-92 9.82816e-93 2.1312e-93 4.43918e-94 8.8937e-95 1.71598e-95 3.19229e-96 5.73251e-97 9.94711e-98 1.66953e-98 2.71299e-99 4.27218e-100 6.52484e-101 9.67294e-102 1.393e-102 1.95013e-103 2.65584e-104 3.52088e-105 4.5466e-106 5.72233e-107 7.02358e-108 8.41171e-109 9.83512e-110 1.12322e-110 1.25357e-111 1.36785e-112 1.45989e-113 1.52471e-114 1.55889e-115 1.56092e-116 1.53125e-117 1.47221e-118 1.38774e-119 1.28288e-120 1.1546e-121 0 
0 1.27385e-173 2.66027e-172 5.48286e-171 1.11758e-169 2.25267e-168 4.48972e-167 8.84702e-166 1.72339e-164 3.31839e-163 6.31514e-162 1.18767e-160 2.20708e-159 4.05222e-158 7.34966e-157 1.3167e-155 2.32966e-154 4.07031e-153 7.02156e-152 1.19577e-150 2.01006e-149 3.33467e-148 5.45901e-147 8.81709e-146 1.40481e-144 2.20761e-143 3.4211e-142 5.22725e-141 7.87352e-140 1.16889e-138 1.71006e-137 2.46488e-136 3.49978e-135 4.89399e-134 6.7386e-133 9.1342e-132 1.21862e-130 1.59981e-129 2.06618e-128 2.62459e-127 3.27827e-126 4.02537e-125 4.8577e-124 5.75972e-123 6.70806e-122 7.67169e-121 8.61299e-120 9.48966e-119 1.02575e-117 1.08738e-116 1.13012e-115 1.1511e-114 1.14865e-113 1.12247e-112 1.07377e-111 1.0051e-110 9.20196e-110 8.23632e-109 7.2038e-108 6.15394e-107 5.132e-106 4.17571e-105 3.31315e-104 2.56192e-103 1.92948e-102 1.41444e-101 1.00857e-100 6.99042e-100 4.70597e-99 3.07472e-98 1.94812e-97 1.19592e-96 7.10669e-96 4.08405e-95 2.2674e-94 1.21481e-93 6.27379e-93 3.11934e-92 1.49122e-91 6.84494e-91 3.01234e-90 1.26901e-89 5.10885e-89 1.96203e-88 7.17438e-88 2.49274e-87 8.21187e-87 2.55906e-86 7.52541e-86 2.08292e-85 5.41169e-85 1.31611e-84 2.98749e-84 6.3114e-84 1.2375e-83 2.24622e-83 3.76642e-83 5.82566e-83 8.30833e-83 1.0936e-82 1.3323e-82 1.50979e-82 1.60336e-82 1.61117e-82 1.54928e-82 1.44234e-82 1.31461e-82 1.18578e-82 1.0717e-82 9.86925e-83 9.45828e-83 9.6108e-83 1.03994e-82 1.18006e-82 1.36675e-82 1.57381e-82 1.76882e-82 1.92164e-82 2.01272e-82 2.03752e-82 2.00599e-82 1.9377e-82 1.85543e-82 1.77935e-82 1.72414e-82 1.69885e-82 1.70771e-82 1.74979e-82 1.81772e-82 1.89835e-82 1.97684e-82 2.04272e-82 2.09418e-82 2.13737e-82 2.18093e-82 2.22876e-82 2.27516e-82 2.30523e-82 2.30112e-82 2.25087e-82 2.15498e-82 2.02657e-82 1.88522e-82 1.74901e-82 1.62928e-82 1.5296e-82 1.4471e-82 1.37461e-82 1.30354e-82 1.22801e-82 1.14911e-82 1.07677e-82 1.02725e-82 1.01649e-82 1.05197e-82 1.12758e-82 1.22461e-82 1.31908e-82 1.39144e-82 1.43296e-82 1.44596e-82 1.43908e-82 1.4214e-82 1.39883e-82 1.37419e-82 1.35014e-82 1.33264e-82 1.33167e-82 1.35761e-82 1.41509e-82 1.49821e-82 1.59075e-82 1.67135e-82 1.72064e-82 1.72656e-82 1.68666e-82 1.60822e-82 1.50702e-82 1.40475e-82 1.32483e-82 1.28745e-82 1.30577e-82 1.38424e-82 1.51889e-82 1.6981e-82 1.90309e-82 2.10888e-82 2.28732e-82 2.41295e-82 2.46995e-82 2.45668e-82 2.38518e-82 2.27481e-82 2.1431e-82 1.99831e-82 1.8382e-82 1.65544e-82 1.44588e-82 1.21413e-82 9.73497e-83 7.41502e-83 5.34364e-83 3.63069e-83 2.31856e-83 1.38806e-83 7.77611e-84 4.07244e-84 1.99354e-84 9.12702e-85 3.91271e-85 1.57312e-85 5.9428e-86 2.11372e-86 7.09322e-87 2.25058e-87 6.76561e-88 1.93089e-88 5.2419e-89 1.35615e-89 3.34951e-90 7.91109e-91 1.78961e-91 3.88326e-92 8.09401e-93 1.6227e-93 3.13302e-94 5.83251e-95 1.0481e-95 1.81995e-96 3.05679e-97 4.97086e-98 7.83335e-99 1.19725e-99 1.7762e-100 2.55979e-101 3.58625e-102 4.88768e-103 6.48453e-104 8.37998e-105 1.0555e-105 1.29651e-106 1.55394e-107 1.8183e-108 2.07819e-109 2.32118e-110 2.53474e-111 2.70743e-112 2.82987e-113 2.89559e-114 2.90165e-115 2.84875e-116 2.7411e-117 2.5859e-118 2.39241e-119 2.15489e-120 0 