# vtk DataFile Version 3.0
Gray-Scott Simulation Output
ASCII
DATASET STRUCTURED_POINTS
DIMENSIONS 256 256 1
SPACING 1.0 1.0 1.0
ORIGIN 0 0 0
POINT_DATA 65536
SCALARS u double
LOOKUP_TABLE default
0 0 0 0 0 0 0 0 0 0 0 0 0 0 0 0 0 0 0 0 0 0 0 0 0 0 0 0 0 0 0 0 0 0 0 0 0 0 0 0 0 0 0 0 0 0 0 0 0 0 0 0 0 0 0 0 0 0 0 0 0 0 0 0 0 0 0 0 0 0 0 0 0 0 0 0 0 0 0 0 0 0 0 0 0 0 0 0 0 0 0 0 0 0 0 0 0 0 0 0 0 0 0 0 0 0 0 0 0 0 0 0 0 0 0 0 0 0 0 0 0 0 0 0 0 0 0 0 0 0 0 0 0 0 0 0 0 0 0 0 0 0 0 0 0 0 0 0 0 0 0 0 0 0 0 0 0 0 0 0 0 0 0 0 0 0 0 0 0 0 0 0 0 0 0 0 0 0 0 0 0 0 0 0 0 0 0 0 0 0 0 0 0 0 0 0 0 0 0 0 0 0 0 0 0 0 0 0 0 0 0 0 0 0 0 0 0 0 0 0 0 0 0 0 0 0 0 0 0 0 0 0 0 0 0 0 0 0 0 0 0 0 0 0 0 0 0 0 0 0 0 0 0 0 0 0 
0 8.16811e-76 2.81116e-75 8.80679e-75 2.71482e-74 8.29475e-74 2.5136e-73 7.55492e-73 2.25207e-72 6.65777e-72 1.95185e-71 5.67429e-71 1.63568e-70 4.67501e-70 1.32476e-69 3.72168e-69 1.03648e-68 2.86139e-68 7.82997e-68 2.12365e-67 5.70848e-67 1.5207e-66 4.01442e-66 1.05011e-65 2.72173e-65 6.98921e-65 1.77809e-64 4.4812e-64 1.11871e-63 2.76626e-63 6.77474e-63 1.64317e-62 3.94668e-62 9.38664e-62 2.21047e-61 5.15373e-61 1.18957e-60 2.71803e-60 6.14729e-60 1.37607e-59 3.04856e-59 6.68358e-59 1.44993e-58 3.11227e-58 6.60937e-58 1.38855e-57 2.88565e-57 5.93157e-57 1.20588e-56 2.42442e-56 4.81998e-56 9.47493e-56 1.84146e-55 3.53809e-55 6.71976e-55 1.26148e-54 2.34049e-54 4.29139e-54 7.77523e-54 1.39192e-53 2.46185e-53 4.30148e-53 7.4241e-53 1.26561e-52 2.13085e-52 3.54291e-52 5.81685e-52 9.42974e-52 1.50924e-51 2.38469e-51 3.71951e-51 5.72646e-51 8.70169e-51 1.30499e-50 1.93139e-50 2.82075e-50 4.06506e-50 5.78037e-50 8.10981e-50 1.12258e-49 1.53306e-49 2.06551e-49 2.74548e-49 3.60021e-49 4.65758e-49 5.94464e-49 7.48578e-49 9.30075e-49 1.14024e-48 1.37948e-48 1.6471e-48 1.94121e-48 2.25862e-48 2.59492e-48 2.94453e-48 3.30099e-48 3.65722e-48 4.00597e-48 4.34016e-48 4.65338e-48 4.94025e-48 5.19677e-48 5.42051e-48 5.61071e-48 5.76825e-48 5.89551e-48 5.99604e-48 6.07427e-48 6.13507e-48 6.1834e-48 6.22391e-48 6.26071e-48 6.29708e-48 6.33543e-48 6.37727e-48 6.42326e-48 6.47334e-48 6.52696e-48 6.5832e-48 6.64099e-48 6.69925e-48 6.75701e-48 6.81347e-48 6.86799e-48 6.92013e-48 6.96953e-48 7.01586e-48 7.05875e-48 7.09772e-48 7.13213e-48 7.16117e-48 7.18386e-48 7.19909e-48 7.20571e-48 7.20257e-48 7.18866e-48 7.16317e-48 7.12563e-48 7.07592e-48 7.01439e-48 6.94182e-48 6.85949e-48 6.76908e-48 6.67265e-48 6.57252e-48 6.47121e-48 6.37126e-48 6.27516e-48 6.18521e-48 6.10343e-48 6.03141e-48 5.97035e-48 5.92092e-48 5.88336e-48 5.85741e-48 5.84245e-48 5.83753e-48 5.84145e-48 5.8529e-48 5.87052e-48 5.89298e-48 5.91908e-48 5.94773e-48 5.97806e-48 6.00934e-48 6.04105e-48 6.07283e-48 6.10447e-48 6.13591e-48 6.1672e-48 6.19853e-48 6.23022e-48 6.26267e-48 6.29639e-48 6.33196e-48 6.36995e-48 6.41087e-48 6.4551e-48 6.50277e-48 6.55365e-48 6.60708e-48 6.66186e-48 6.71624e-48 6.76786e-48 6.81381e-48 6.85068e-48 6.87469e-48 6.88184e-48 6.86808e-48 6.82949e-48 6.76255e-48 6.66425e-48 6.53235e-48 6.36549e-48 6.16333e-48 5.92662e-48 5.65723e-48 5.35811e-48 5.03324e-48 4.68742e-48 4.32619e-48 3.95551e-48 3.58159e-48 3.21058e-48 2.84834e-48 2.50019e-48 2.17078e-48 1.86383e-48 1.58215e-48 1.32754e-48 1.10083e-48 9.01979e-49 7.30135e-49 5.83825e-49 4.61085e-49 3.59628e-49 2.76988e-49 2.10654e-49 1.58181e-49 1.17271e-49 8.58353e-50 6.20249e-50 4.42472e-50 3.11617e-50 2.16658e-50 1.48713e-50 1.00776e-50 6.74221e-51 4.45352e-51 2.90454e-51 1.87043e-51 1.18936e-51 7.46832e-52 4.63115e-52 2.83621e-52 1.71553e-52 1.02494e-52 6.04882e-53 3.52647e-53 2.03115e-53 1.15587e-53 6.49935e-54 3.61129e-54 1.98298e-54 1.07615e-54 5.77247e-55 3.06067e-55 1.60425e-55 8.31303e-56 4.25876e-56 2.15654e-56 1.07815e-56 5.29305e-57 2.48885e-57 9.82826e-58 0 
0 2.81185e-75 9.67909e-75 3.03292e-74 9.35153e-74 2.8579e-73 8.66253e-73 2.60426e-72 7.76507e-72 2.29617e-71 6.73342e-71 1.95802e-70 5.64576e-70 1.61409e-69 4.57516e-69 1.28568e-68 3.58166e-68 9.89081e-68 2.70738e-67 7.3453e-67 1.97508e-66 5.2632e-66 1.38987e-65 3.63691e-65 9.4296e-65 2.42231e-64 6.16469e-64 1.55421e-63 3.88143e-63 9.60134e-63 2.35232e-62 5.70761e-62 1.37143e-61 3.26307e-61 7.68734e-61 1.79305e-60 4.14038e-60 9.4643e-60 2.14142e-59 4.79565e-59 1.0629e-58 2.33129e-58 5.05974e-58 1.08656e-57 2.30851e-57 4.85211e-57 1.00882e-56 2.07462e-56 4.21964e-56 8.48754e-56 1.68819e-55 3.32014e-55 6.45576e-55 1.24096e-54 2.35801e-54 4.42868e-54 8.22061e-54 1.50798e-53 2.73345e-53 4.89565e-53 8.66272e-53 1.51427e-52 2.61469e-52 4.45929e-52 7.51107e-52 1.24937e-51 2.05208e-51 3.32795e-51 5.32846e-51 8.42239e-51 1.31414e-50 2.02391e-50 3.07644e-50 4.61515e-50 6.83239e-50 9.98121e-50 1.43878e-49 2.04635e-49 2.87159e-49 3.97561e-49 5.43015e-49 7.31704e-49 9.72674e-49 1.27558e-48 1.65027e-48 2.10631e-48 2.65229e-48 3.29516e-48 4.03938e-48 4.88624e-48 5.8332e-48 6.87336e-48 7.9953e-48 9.18315e-48 1.0417e-47 1.16738e-47 1.29284e-47 1.41549e-47 1.53283e-47 1.64259e-47 1.74287e-47 1.83227e-47 1.90994e-47 1.97566e-47 2.02974e-47 2.07307e-47 2.10693e-47 2.13291e-47 2.15277e-47 2.16827e-47 2.18108e-47 2.19266e-47 2.20418e-47 2.2165e-47 2.23015e-47 2.24537e-47 2.26212e-47 2.28021e-47 2.2993e-47 2.31902e-47 2.33897e-47 2.3588e-47 2.37823e-47 2.39703e-47 2.41503e-47 2.4321e-47 2.44813e-47 2.46299e-47 2.4765e-47 2.48844e-47 2.49854e-47 2.50643e-47 2.51175e-47 2.51408e-47 2.51302e-47 2.50823e-47 2.49941e-47 2.48641e-47 2.46918e-47 2.44783e-47 2.42265e-47 2.39407e-47 2.36268e-47 2.32919e-47 2.29442e-47 2.25924e-47 2.22453e-47 2.19116e-47 2.15993e-47 2.13153e-47 2.10654e-47 2.08535e-47 2.06821e-47 2.05519e-47 2.0462e-47 2.04103e-47 2.03934e-47 2.04072e-47 2.04471e-47 2.05083e-47 2.05863e-47 2.06768e-47 2.07761e-47 2.08812e-47 2.09895e-47 2.10993e-47 2.12093e-47 2.13188e-47 2.14277e-47 2.1536e-47 2.16445e-47 2.17542e-47 2.18667e-47 2.19836e-47 2.21071e-47 2.22391e-47 2.23814e-47 2.25355e-47 2.27018e-47 2.28795e-47 2.30665e-47 2.32586e-47 2.34498e-47 2.3632e-47 2.3795e-47 2.3927e-47 2.40148e-47 2.40445e-47 2.40019e-47 2.38732e-47 2.36461e-47 2.33099e-47 2.28565e-47 2.22811e-47 2.15821e-47 2.07619e-47 1.98269e-47 1.8787e-47 1.76561e-47 1.64507e-47 1.519e-47 1.3895e-47 1.25872e-47 1.12884e-47 1.00191e-47 8.79821e-48 7.64204e-48 6.56396e-48 5.57394e-48 4.67849e-48 3.88073e-48 3.1806e-48 2.57528e-48 2.05968e-48 1.62698e-48 1.26919e-48 9.77671e-49 7.43615e-49 5.58427e-49 4.14024e-49 3.03047e-49 2.18982e-49 1.56213e-49 1.10009e-49 7.64799e-50 5.24902e-50 3.55656e-50 2.37911e-50 1.57125e-50 1.02456e-50 6.59649e-51 4.19365e-51 2.63267e-51 1.63213e-51 9.99281e-52 6.04265e-52 3.60912e-52 2.12931e-52 1.241e-52 7.14552e-53 4.06495e-53 2.28491e-53 1.26914e-53 6.96646e-54 3.77929e-54 2.02646e-54 1.07407e-54 5.62764e-55 2.91506e-55 1.49282e-55 7.55641e-56 3.77637e-56 1.85328e-56 8.71144e-57 3.43924e-57 0 
0 8.81148e-75 3.03379e-74 9.50879e-74 2.93269e-73 8.96505e-73 2.71816e-72 8.17416e-72 2.438e-71 7.21151e-71 2.11541e-70 6.1534e-70 1.77486e-69 5.07591e-69 1.43927e-68 4.04595e-68 1.12752e-67 3.1148e-67 8.52921e-67 2.3149e-66 6.22696e-66 1.66001e-65 4.3854e-65 1.148e-64 2.97772e-64 7.65249e-64 1.94837e-63 4.91426e-63 1.22782e-62 3.03857e-62 7.44787e-62 1.80797e-61 4.34628e-61 1.03461e-60 2.43858e-60 5.69072e-60 1.31472e-59 3.00676e-59 6.80668e-59 1.52512e-58 3.38201e-58 7.42181e-58 1.61166e-57 3.46283e-57 7.36117e-57 1.54804e-56 3.22036e-56 6.62631e-56 1.34849e-55 2.71393e-55 5.4011e-55 1.06282e-54 2.06774e-54 3.97695e-54 7.56106e-54 1.42087e-53 2.63893e-53 4.84352e-53 8.78447e-53 1.57417e-52 2.78696e-52 4.87431e-52 8.4209e-52 1.43691e-51 2.42151e-51 4.02986e-51 6.62224e-51 1.07447e-50 1.72114e-50 2.72171e-50 4.24849e-50 6.54576e-50 9.95373e-50 1.49376e-49 2.21217e-49 3.23272e-49 4.6613e-49 6.63147e-49 9.30802e-49 1.28894e-48 1.76083e-48 2.37305e-48 3.15492e-48 4.13773e-48 5.35341e-48 6.83283e-48 8.60372e-48 1.06883e-47 1.31008e-47 1.58449e-47 1.89119e-47 2.22787e-47 2.59077e-47 2.97467e-47 3.37304e-47 3.77835e-47 4.18237e-47 4.5767e-47 4.9532e-47 5.30451e-47 5.62453e-47 5.90875e-47 6.15454e-47 6.3612e-47 6.52995e-47 6.6637e-47 6.76675e-47 6.84433e-47 6.90224e-47 6.94627e-47 6.98188e-47 7.01385e-47 7.04599e-47 7.08109e-47 7.12088e-47 7.16608e-47 7.21662e-47 7.27181e-47 7.33057e-47 7.39162e-47 7.45369e-47 7.51562e-47 7.57646e-47 7.63545e-47 7.69204e-47 7.74579e-47 7.79633e-47 7.84323e-47 7.88593e-47 7.92372e-47 7.95569e-47 7.98076e-47 7.99769e-47 8.00519e-47 8.00198e-47 7.98694e-47 7.95917e-47 7.91811e-47 7.86365e-47 7.79615e-47 7.71647e-47 7.62602e-47 7.52666e-47 7.42063e-47 7.31053e-47 7.19912e-47 7.08921e-47 6.98355e-47 6.88468e-47 6.79481e-47 6.71572e-47 6.6487e-47 6.5945e-47 6.55336e-47 6.52501e-47 6.50873e-47 6.50346e-47 6.50789e-47 6.52056e-47 6.53996e-47 6.56464e-47 6.59325e-47 6.62464e-47 6.65781e-47 6.692e-47 6.72664e-47 6.76134e-47 6.79588e-47 6.8302e-47 6.86437e-47 6.8986e-47 6.93324e-47 6.96877e-47 7.00574e-47 7.04481e-47 7.08663e-47 7.1318e-47 7.18076e-47 7.2337e-47 7.29039e-47 7.35016e-47 7.41173e-47 7.4732e-47 7.532e-47 7.58495e-47 7.62828e-47 7.65782e-47 7.66912e-47 7.65765e-47 7.61902e-47 7.5492e-47 7.44476e-47 7.30307e-47 7.12245e-47 6.90236e-47 6.64345e-47 6.34762e-47 6.018e-47 5.65887e-47 5.2755e-47 4.87397e-47 4.46094e-47 4.04334e-47 3.62808e-47 3.22183e-47 2.83065e-47 2.45987e-47 2.11381e-47 1.79576e-47 1.50788e-47 1.25122e-47 1.02582e-47 8.30843e-48 6.64676e-48 5.25161e-48 4.09752e-48 3.15687e-48 2.40142e-48 1.80354e-48 1.33724e-48 9.78829e-49 7.073e-49 5.04539e-49 3.55286e-49 2.46977e-49 1.69486e-49 1.14821e-49 7.67945e-50 5.07077e-50 3.30576e-50 2.12785e-50 1.3524e-50 8.48765e-51 5.26033e-51 3.21965e-51 1.94627e-51 1.16205e-51 6.85337e-52 3.99277e-52 2.29809e-52 1.30681e-52 7.34261e-53 4.07671e-53 2.2368e-53 1.21293e-53 6.50093e-54 3.4441e-54 1.80374e-54 9.339e-55 4.78037e-55 2.41864e-55 1.20819e-55 5.92666e-56 2.78476e-56 1.09909e-56 0 
0 2.71708e-74 9.35704e-74 2.93357e-73 9.05029e-73 2.76744e-72 8.39329e-72 2.52484e-71 7.53291e-71 2.22892e-70 6.54044e-70 1.90316e-69 5.49126e-69 1.571e-68 4.45615e-68 1.25314e-67 3.49354e-67 9.65466e-67 2.64475e-66 7.18093e-66 1.93241e-65 5.15363e-65 1.36206e-64 3.56709e-64 9.25646e-64 2.37989e-63 6.06206e-63 1.5297e-62 3.82372e-62 9.46732e-62 2.32166e-61 5.63861e-61 1.35617e-60 3.22992e-60 7.61684e-60 1.7784e-59 4.11077e-59 9.40635e-59 2.13055e-58 4.77637e-58 1.05976e-57 2.32693e-57 5.05583e-57 1.08692e-56 2.31185e-56 4.8646e-56 1.01256e-55 2.08469e-55 4.24497e-55 8.54831e-55 1.70224e-54 3.35164e-54 6.52455e-54 1.25563e-53 2.38865e-53 4.4914e-53 8.34662e-53 1.53285e-52 2.78167e-52 4.98762e-52 8.83528e-52 1.54614e-51 2.67261e-51 4.56292e-51 7.69366e-51 1.28105e-50 2.10622e-50 3.41907e-50 5.47952e-50 8.66905e-50 1.35381e-49 2.08675e-49 3.1745e-49 4.76584e-49 7.06048e-49 1.03212e-48 1.48869e-48 2.11852e-48 2.97434e-48 4.11967e-48 5.62902e-48 7.58734e-48 1.00885e-47 1.32323e-47 1.71208e-47 2.18524e-47 2.7515e-47 3.4179e-47 4.18887e-47 5.06545e-47 6.04463e-47 7.11889e-47 8.27593e-47 9.49883e-47 1.07665e-46 1.20546e-46 1.33368e-46 1.45859e-46 1.5776e-46 1.68836e-46 1.78893e-46 1.87788e-46 1.95441e-46 2.01831e-46 2.07003e-46 2.11052e-46 2.14119e-46 2.16377e-46 2.1801e-46 2.1921e-46 2.2015e-46 2.20986e-46 2.21839e-46 2.228e-46 2.23922e-46 2.2523e-46 2.2672e-46 2.2837e-46 2.30143e-46 2.32e-46 2.33897e-46 2.35798e-46 2.37671e-46 2.39492e-46 2.41242e-46 2.42907e-46 2.44475e-46 2.45932e-46 2.4726e-46 2.48437e-46 2.49435e-46 2.50218e-46 2.50749e-46 2.50987e-46 2.50891e-46 2.50427e-46 2.49566e-46 2.4829e-46 2.46596e-46 2.44495e-46 2.42013e-46 2.39195e-46 2.36099e-46 2.32794e-46 2.29362e-46 2.25889e-46 2.22463e-46 2.1917e-46 2.16089e-46 2.13289e-46 2.10825e-46 2.08738e-46 2.07052e-46 2.05772e-46 2.04892e-46 2.04387e-46 2.04226e-46 2.04366e-46 2.04762e-46 2.05367e-46 2.06136e-46 2.07027e-46 2.08002e-46 2.09033e-46 2.10096e-46 2.11171e-46 2.12248e-46 2.13321e-46 2.14386e-46 2.15446e-46 2.1651e-46 2.17586e-46 2.1869e-46 2.19841e-46 2.21058e-46 2.22363e-46 2.23774e-46 2.25306e-46 2.26966e-46 2.28747e-46 2.30629e-46 2.32573e-46 2.3452e-46 2.36391e-46 2.38087e-46 2.39489e-46 2.40469e-46 2.40886e-46 2.40597e-46 2.39464e-46 2.3736e-46 2.34175e-46 2.29822e-46 2.24248e-46 2.17432e-46 2.0939e-46 2.00179e-46 1.89895e-46 1.78669e-46 1.66665e-46 1.54073e-46 1.41101e-46 1.27967e-46 1.14891e-46 1.02083e-46 8.97368e-47 7.80221e-47 6.70783e-47 5.70114e-47 4.78918e-47 3.97554e-47 3.26054e-47 2.64164e-47 2.1139e-47 1.6706e-47 1.30374e-47 1.00462e-47 7.64308e-48 5.74075e-48 4.25677e-48 3.11593e-48 2.25155e-48 1.60604e-48 1.13086e-48 7.86037e-49 5.39342e-49 3.65328e-49 2.44293e-49 1.61274e-49 1.05114e-49 6.7642e-50 4.29793e-50 2.69657e-50 1.6707e-50 1.02223e-50 6.17714e-51 3.6868e-51 2.17351e-51 1.26578e-51 7.28239e-52 4.13941e-52 2.32481e-52 1.29019e-52 7.07583e-53 3.83521e-53 2.05459e-53 1.08799e-53 5.6953e-54 2.94737e-54 1.50795e-54 7.62587e-55 3.80753e-55 1.86689e-55 8.76832e-56 3.45963e-56 0 
0 8.30418e-74 2.86045e-73 8.97046e-73 2.76827e-72 8.46752e-72 2.56889e-71 7.73012e-71 2.30705e-70 6.82862e-70 2.00444e-69 5.83459e-69 1.68408e-68 4.81973e-68 1.36762e-67 3.84742e-67 1.07301e-66 2.96651e-66 8.12956e-66 2.20821e-65 5.94485e-65 1.58613e-64 4.1938e-64 1.0988e-63 2.85262e-63 7.3376e-63 1.86991e-62 4.72075e-62 1.18059e-61 2.9245e-61 7.1753e-61 1.74354e-60 4.19561e-60 9.99768e-60 2.35891e-59 5.51059e-59 1.27446e-58 2.91785e-58 6.61263e-58 1.48329e-57 3.29292e-57 7.23447e-57 1.57278e-56 3.38318e-56 7.20022e-56 1.51597e-55 3.15736e-55 6.50441e-55 1.32527e-54 2.67038e-54 5.32083e-54 1.04829e-53 2.04193e-53 3.93205e-53 7.48472e-53 1.40822e-52 2.61856e-52 4.81188e-52 8.73742e-52 1.56758e-51 2.77852e-51 4.86512e-51 8.41454e-51 1.43742e-50 2.42502e-50 4.04003e-50 6.64588e-50 1.0794e-49 1.73075e-49 2.7395e-49 4.28017e-49 6.60035e-49 1.00451e-48 1.50867e-48 2.2359e-48 3.26966e-48 4.71755e-48 6.7154e-48 9.43073e-48 1.30653e-47 1.78556e-47 2.40715e-47 3.20106e-47 4.19899e-47 5.43319e-47 6.93478e-47 8.73151e-47 1.08454e-46 1.32901e-46 1.60685e-46 1.91705e-46 2.25714e-46 2.62316e-46 3.00965e-46 3.40986e-46 3.81599e-46 4.21961e-46 4.61211e-46 4.9852e-46 5.33147e-46 5.64479e-46 5.92073e-46 6.15679e-46 6.35247e-46 6.50924e-46 6.6303e-46 6.72022e-46 6.78456e-46 6.82934e-46 6.86062e-46 6.88403e-46 6.9045e-46 6.92594e-46 6.95119e-46 6.98198e-46 7.01904e-46 7.06227e-46 7.1109e-46 7.16379e-46 7.21961e-46 7.27702e-46 7.33479e-46 7.39191e-46 7.44758e-46 7.5012e-46 7.55232e-46 7.60053e-46 7.64538e-46 7.68633e-46 7.72268e-46 7.75352e-46 7.7778e-46 7.79431e-46 7.80177e-46 7.79896e-46 7.78476e-46 7.75829e-46 7.719e-46 7.66677e-46 7.60193e-46 7.52533e-46 7.4383e-46 7.34264e-46 7.24054e-46 7.13449e-46 7.02717e-46 6.9213e-46 6.81954e-46 6.72435e-46 6.63786e-46 6.56179e-46 6.49738e-46 6.44535e-46 6.40592e-46 6.3788e-46 6.36331e-46 6.3584e-46 6.3628e-46 6.37509e-46 6.39381e-46 6.41755e-46 6.44502e-46 6.4751e-46 6.50686e-46 6.53956e-46 6.57267e-46 6.60581e-46 6.6388e-46 6.67157e-46 6.70421e-46 6.73694e-46 6.77008e-46 6.80412e-46 6.83962e-46 6.87721e-46 6.91756e-46 6.96128e-46 7.00883e-46 7.06043e-46 7.11592e-46 7.1747e-46 7.23558e-46 7.29676e-46 7.35582e-46 7.40968e-46 7.45474e-46 7.48694e-46 7.50195e-46 7.49531e-46 7.46268e-46 7.40006e-46 7.30395e-46 7.17163e-46 7.00128e-46 6.79215e-46 6.54468e-46 6.26051e-46 5.9425e-46 5.59468e-46 5.22207e-46 4.83056e-46 4.42661e-46 4.01704e-46 3.60873e-46 3.20829e-46 2.82184e-46 2.45477e-46 2.11151e-46 1.79546e-46 1.50891e-46 1.25307e-46 1.02808e-46 8.33201e-47 6.6694e-47 5.2721e-47 4.11522e-47 3.17159e-47 2.41326e-47 1.81279e-47 1.34426e-47 9.8402e-48 7.1104e-48 5.07166e-48 3.57084e-48 2.48176e-48 1.70264e-48 1.15311e-48 7.70927e-49 5.08828e-49 3.31559e-49 2.13306e-49 1.35494e-49 8.49841e-50 5.26358e-50 3.21943e-50 1.94473e-50 1.16026e-50 6.83749e-51 3.9803e-51 2.289e-51 1.30053e-51 7.30091e-52 4.04993e-52 2.22008e-52 1.20275e-52 6.44029e-53 3.40873e-53 1.7835e-53 9.22526e-54 4.71755e-54 2.38453e-54 1.18999e-54 5.83193e-55 2.73793e-55 1.07994e-55 0 
0 2.51723e-73 8.67292e-73 2.72064e-72 8.3984e-72 2.56968e-71 7.79842e-71 2.3474e-70 7.00813e-70 2.07504e-69 6.09308e-69 1.77423e-68 5.12293e-68 1.4667e-67 4.16341e-67 1.17171e-66 3.26908e-66 9.04151e-66 2.47879e-65 6.73591e-65 1.81418e-64 4.84249e-64 1.28094e-63 3.35766e-63 8.7209e-63 2.24427e-62 5.72199e-62 1.44527e-61 3.61618e-61 8.96234e-61 2.20004e-60 5.34868e-60 1.28777e-59 3.07025e-59 7.24804e-59 1.69412e-58 3.92026e-58 8.98041e-58 2.03636e-57 4.57042e-57 1.01523e-56 2.23176e-56 4.85475e-56 1.04493e-55 2.22521e-55 4.68793e-55 9.76971e-55 2.01388e-54 4.10583e-54 8.27834e-54 1.65052e-53 3.25385e-53 6.34207e-53 1.22203e-52 2.32763e-52 4.38209e-52 8.15353e-52 1.49923e-51 2.72399e-51 4.89011e-51 8.67294e-51 1.51952e-50 2.62967e-50 4.49478e-50 7.58731e-50 1.26474e-49 2.08164e-49 3.38271e-49 5.42677e-49 8.59402e-49 1.34337e-48 2.07252e-48 3.15556e-48 4.74128e-48 7.02947e-48 1.02832e-47 1.48419e-47 2.11338e-47 2.96872e-47 4.11384e-47 5.62333e-47 7.58221e-47 1.00843e-46 1.32293e-46 1.71186e-46 2.185e-46 2.75102e-46 3.41677e-46 4.18643e-46 5.06075e-46 6.03636e-46 7.10528e-46 8.25475e-46 9.46736e-46 1.07216e-45 1.19926e-45 1.32538e-45 1.44778e-45 1.56385e-45 1.67126e-45 1.7681e-45 1.85299e-45 1.92518e-45 1.98453e-45 2.03156e-45 2.06731e-45 2.09325e-45 2.11118e-45 2.12302e-45 2.1307e-45 2.13602e-45 2.14053e-45 2.14548e-45 2.15176e-45 2.15993e-45 2.17019e-45 2.18251e-45 2.19666e-45 2.21224e-45 2.22885e-45 2.24605e-45 2.26344e-45 2.2807e-45 2.29757e-45 2.31386e-45 2.32942e-45 2.34412e-45 2.35781e-45 2.37034e-45 2.38147e-45 2.39093e-45 2.39839e-45 2.40348e-45 2.40581e-45 2.40499e-45 2.40068e-45 2.39261e-45 2.38061e-45 2.36464e-45 2.3448e-45 2.32134e-45 2.29468e-45 2.26537e-45 2.23407e-45 2.20157e-45 2.16867e-45 2.13622e-45 2.10504e-45 2.07586e-45 2.04937e-45 2.02607e-45 2.00635e-45 1.99043e-45 1.97837e-45 1.97009e-45 1.96537e-45 1.9639e-45 1.96527e-45 1.96905e-45 1.97479e-45 1.98206e-45 1.99047e-45 1.99966e-45 2.00937e-45 2.01935e-45 2.02946e-45 2.03957e-45 2.04964e-45 2.05964e-45 2.0696e-45 2.07959e-45 2.08971e-45 2.10012e-45 2.11098e-45 2.1225e-45 2.13488e-45 2.14831e-45 2.16296e-45 2.17887e-45 2.19603e-45 2.21425e-45 2.23317e-45 2.25225e-45 2.27076e-45 2.28775e-45 2.30211e-45 2.31261e-45 2.31791e-45 2.31662e-45 2.30739e-45 2.28899e-45 2.2603e-45 2.22046e-45 2.16888e-45 2.10529e-45 2.0298e-45 1.94286e-45 1.84535e-45 1.73846e-45 1.62374e-45 1.50299e-45 1.37819e-45 1.25147e-45 1.12496e-45 1.00073e-45 8.80701e-46 7.66557e-46 6.59708e-46 5.61235e-46 4.71878e-46 3.92028e-46 3.21759e-46 2.60856e-46 2.08866e-46 1.65148e-46 1.28937e-46 9.93891e-47 7.56354e-47 5.68213e-47 4.21382e-47 3.08465e-47 2.22891e-47 1.58975e-47 1.11922e-47 7.77778e-48 5.33528e-48 3.61269e-48 2.41484e-48 1.59349e-48 1.03808e-48 6.67654e-49 4.23974e-49 2.65838e-49 1.64594e-49 1.00636e-49 6.07677e-50 3.62408e-50 2.13482e-50 1.24221e-50 7.14065e-51 4.05527e-51 2.2755e-51 1.26166e-51 6.91286e-52 3.7433e-52 2.00342e-52 1.05985e-52 5.54251e-53 2.86544e-53 1.46456e-53 7.399e-54 3.69058e-54 1.8078e-54 8.48341e-55 3.34506e-55 0 
0 7.56817e-73 2.60819e-72 8.18411e-72 2.52716e-71 7.73485e-71 2.34813e-70 7.07045e-70 2.11159e-69 6.25439e-69 1.83717e-68 5.35155e-68 1.54579e-67 4.42727e-67 1.25722e-66 3.5396e-66 9.87952e-66 2.73357e-65 7.49743e-65 2.03823e-64 5.49198e-64 1.46659e-63 3.88121e-63 1.01783e-62 2.64487e-62 6.80967e-62 1.73704e-61 4.38963e-61 1.09888e-60 2.72485e-60 6.69234e-60 1.62789e-59 3.92148e-59 9.35455e-59 2.20958e-58 5.16749e-58 1.19646e-57 2.74239e-57 6.22217e-57 1.39734e-56 3.10578e-56 6.83149e-56 1.48696e-55 3.20249e-55 6.82405e-55 1.43855e-54 2.99986e-54 6.18772e-54 1.26234e-53 2.54681e-53 5.08108e-53 1.00233e-52 1.95492e-52 3.76931e-52 7.18411e-52 1.35339e-51 2.5198e-51 4.63625e-51 8.42911e-51 1.51415e-50 2.68713e-50 4.71083e-50 8.15749e-50 1.39516e-49 2.35646e-49 3.93026e-49 6.47249e-49 1.05237e-48 1.68918e-48 2.67642e-48 4.18568e-48 6.46065e-48 9.84124e-48 1.47929e-47 2.19409e-47 3.21088e-47 4.6359e-47 6.60326e-47 9.2784e-47 1.28605e-46 1.75832e-46 2.37125e-46 3.15417e-46 4.13827e-46 5.35521e-46 6.83539e-46 8.6058e-46 1.06876e-45 1.30934e-45 1.5825e-45 1.88714e-45 2.22069e-45 2.57907e-45 2.95677e-45 3.34696e-45 3.74184e-45 4.13297e-45 4.51182e-45 4.87018e-45 5.2008e-45 5.49771e-45 5.7567e-45 5.97549e-45 6.15383e-45 6.29338e-45 6.39755e-45 6.47111e-45 6.51972e-45 6.54953e-45 6.56664e-45 6.57673e-45 6.5847e-45 6.59448e-45 6.60885e-45 6.62951e-45 6.65716e-45 6.69163e-45 6.73214e-45 6.77751e-45 6.82638e-45 6.87737e-45 6.92923e-45 6.98091e-45 7.03159e-45 7.08065e-45 7.12761e-45 7.17204e-45 7.21352e-45 7.25149e-45 7.2853e-45 7.31409e-45 7.33684e-45 7.35241e-45 7.35961e-45 7.35727e-45 7.34431e-45 7.31992e-45 7.28356e-45 7.23511e-45 7.17487e-45 7.10362e-45 7.0226e-45 6.93351e-45 6.83838e-45 6.73956e-45 6.63953e-45 6.54087e-45 6.44606e-45 6.35739e-45 6.27686e-45 6.20608e-45 6.14619e-45 6.09787e-45 6.06131e-45 6.03624e-45 6.02199e-45 6.01758e-45 6.02181e-45 6.03335e-45 6.05082e-45 6.07291e-45 6.09843e-45 6.12632e-45 6.15572e-45 6.18597e-45 6.21656e-45 6.24717e-45 6.27763e-45 6.30789e-45 6.33804e-45 6.36829e-45 6.39897e-45 6.43052e-45 6.46349e-45 6.4985e-45 6.53618e-45 6.57715e-45 6.62187e-45 6.6706e-45 6.72324e-45 6.77926e-45 6.83763e-45 6.89672e-45 6.95427e-45 7.00747e-45 7.05295e-45 7.0869e-45 7.10523e-45 7.10373e-45 7.07822e-45 7.02483e-45 6.94013e-45 6.82137e-45 6.66664e-45 6.47504e-45 6.24673e-45 5.98305e-45 5.68652e-45 5.36076e-45 5.01041e-45 4.64093e-45 4.25846e-45 3.86946e-45 3.48054e-45 3.09811e-45 2.72813e-45 2.3759e-45 2.04582e-45 1.74131e-45 1.46475e-45 1.2174e-45 9.99575e-46 8.10653e-46 6.4928e-46 5.13515e-46 4.01008e-46 3.09166e-46 2.35309e-46 1.76794e-46 1.31117e-46 9.59845e-47 6.93556e-47 4.94649e-47 3.48216e-47 2.41957e-47 1.6595e-47 1.1235e-47 7.50832e-48 4.95338e-48 3.22604e-48 2.07429e-48 1.31681e-48 8.25388e-49 5.1086e-49 3.12236e-49 1.88466e-49 1.12352e-49 6.61551e-50 3.84778e-50 2.21084e-50 1.25498e-50 7.03867e-51 3.90076e-51 2.13625e-51 1.1562e-51 6.18486e-52 3.27025e-52 1.70931e-52 8.83242e-53 4.51201e-53 2.27828e-53 1.1358e-53 5.56086e-54 2.60835e-54 1.02814e-54 0 
0 2.25672e-72 7.77919e-72 2.44173e-71 7.54215e-71 2.30917e-70 7.01246e-70 2.11224e-69 6.3104e-69 1.86976e-68 5.49426e-68 1.60103e-67 4.62632e-67 1.32553e-66 3.76564e-66 1.06061e-65 2.96154e-65 8.19775e-65 2.24938e-64 6.11779e-64 1.64916e-63 4.40598e-63 1.16655e-62 3.06066e-62 7.95708e-62 2.04969e-61 5.23106e-61 1.3226e-60 3.31264e-60 8.21856e-60 2.01959e-59 4.91526e-59 1.18471e-58 2.82766e-58 6.68286e-58 1.5638e-57 3.62288e-57 8.3089e-57 1.88633e-56 4.23877e-56 9.42706e-56 2.07487e-55 4.51907e-55 9.73894e-55 2.07656e-54 4.38034e-54 9.14041e-54 1.8866e-53 3.85132e-53 7.77532e-53 1.55226e-52 3.06416e-52 5.9802e-52 1.15382e-51 2.20059e-51 4.14837e-51 7.72876e-51 1.42297e-50 2.58878e-50 4.65334e-50 8.2635e-50 1.4496e-49 2.51178e-49 4.29849e-49 7.26464e-49 1.21237e-48 1.99772e-48 3.24996e-48 5.21942e-48 8.27427e-48 1.29468e-47 1.99933e-47 3.04691e-47 4.58199e-47 6.79884e-47 9.95341e-47 1.43759e-46 2.04833e-46 2.87901e-46 3.99153e-46 5.45852e-46 7.36263e-46 9.79498e-46 1.28523e-45 1.66328e-45 2.12303e-45 2.67283e-45 3.31912e-45 4.06573e-45 4.91307e-45 5.85747e-45 6.89075e-45 8.00003e-45 9.16788e-45 1.03729e-44 1.15906e-44 1.27947e-44 1.39584e-44 1.50564e-44 1.6066e-44 1.69691e-44 1.77526e-44 1.84099e-44 1.89404e-44 1.93499e-44 1.96492e-44 1.98536e-44 1.9981e-44 2.00507e-44 2.00821e-44 2.00928e-44 2.00983e-44 2.01107e-44 2.01387e-44 2.01876e-44 2.02595e-44 2.03538e-44 2.0468e-44 2.05983e-44 2.07405e-44 2.08901e-44 2.10432e-44 2.11965e-44 2.13474e-44 2.14939e-44 2.16343e-44 2.17675e-44 2.18921e-44 2.20063e-44 2.21082e-44 2.2195e-44 2.22638e-44 2.23111e-44 2.23332e-44 2.23265e-44 2.22879e-44 2.22148e-44 2.21056e-44 2.19598e-44 2.17784e-44 2.15637e-44 2.13196e-44 2.1051e-44 2.07641e-44 2.04661e-44 2.01645e-44 1.98669e-44 1.9581e-44 1.93137e-44 1.9071e-44 1.88577e-44 1.86773e-44 1.85319e-44 1.84219e-44 1.83466e-44 1.83039e-44 1.82909e-44 1.83038e-44 1.83387e-44 1.83915e-44 1.84581e-44 1.85349e-44 1.86187e-44 1.87071e-44 1.8798e-44 1.88898e-44 1.89817e-44 1.90731e-44 1.91639e-44 1.92544e-44 1.93453e-44 1.94375e-44 1.95324e-44 1.96316e-44 1.97371e-44 1.98509e-44 1.99749e-44 2.01104e-44 2.02584e-44 2.04186e-44 2.05897e-44 2.07684e-44 2.09499e-44 2.11276e-44 2.1293e-44 2.14358e-44 2.15447e-44 2.16072e-44 2.16105e-44 2.15417e-44 2.1389e-44 2.11417e-44 2.07913e-44 2.03316e-44 1.97595e-44 1.90752e-44 1.82823e-44 1.73882e-44 1.64036e-44 1.53424e-44 1.4221e-44 1.30581e-44 1.18734e-44 1.06872e-44 9.519e-45 8.3874e-45 7.30875e-45 6.29683e-45 5.36236e-45 4.51282e-45 3.7524e-45 3.0822e-45 2.50054e-45 2.00339e-45 1.58491e-45 1.23794e-45 9.54596e-46 7.26655e-46 5.46012e-46 4.04968e-46 2.96464e-46 2.14213e-46 1.52771e-46 1.07536e-46 7.47124e-47 5.12348e-47 3.46802e-47 2.31718e-47 1.52832e-47 9.95097e-48 6.39643e-48 4.05933e-48 2.54356e-48 1.57373e-48 9.61494e-49 5.80127e-49 3.45694e-49 2.03463e-49 1.18287e-49 6.79337e-50 3.85444e-50 2.16075e-50 1.19687e-50 6.55137e-51 3.54398e-51 1.8948e-51 1.00135e-51 5.23116e-52 2.70163e-52 1.37938e-52 6.96127e-53 3.46859e-53 1.69734e-53 7.95774e-54 3.13567e-54 0 
0 6.67361e-72 2.30107e-71 7.22479e-71 2.23235e-70 6.83705e-70 2.07697e-69 6.25827e-69 1.87035e-68 5.54382e-68 1.62965e-67 4.75061e-67 1.37326e-66 3.93622e-66 1.11868e-65 3.15211e-65 8.80532e-65 2.43843e-64 6.69374e-64 1.82136e-63 4.91206e-63 1.31294e-62 3.47785e-62 9.12924e-62 2.37458e-61 6.11984e-61 1.56266e-60 3.95301e-60 9.90613e-60 2.45901e-59 6.04597e-59 1.47228e-58 3.5506e-58 8.47945e-58 2.00519e-57 4.69496e-57 1.08834e-56 2.49757e-56 5.6736e-56 1.27571e-55 2.83898e-55 6.25252e-55 1.36268e-54 2.93859e-54 6.26983e-54 1.32345e-53 2.76347e-53 5.70769e-53 1.16596e-52 2.35552e-52 4.70577e-52 9.29552e-52 1.81541e-51 3.50507e-51 6.68951e-51 1.26191e-50 2.35265e-50 4.33449e-50 7.89096e-50 1.41935e-49 2.52218e-49 4.42736e-49 7.67638e-49 1.31452e-48 2.22298e-48 3.71211e-48 6.12041e-48 9.96265e-48 1.6009e-47 2.53926e-47 3.97528e-47 6.14196e-47 9.3646e-47 1.4089e-46 2.09144e-46 3.06306e-46 4.42567e-46 6.30796e-46 8.86873e-46 1.22991e-45 1.68232e-45 2.26959e-45 3.01983e-45 3.96284e-45 5.12881e-45 6.5466e-45 8.24168e-45 1.02337e-44 1.2534e-44 1.51434e-44 1.80499e-44 2.12277e-44 2.46362e-44 2.82208e-44 3.19149e-44 3.56422e-44 3.9321e-44 4.28687e-44 4.62069e-44 4.9266e-44 5.19902e-44 5.43406e-44 5.62972e-44 5.78599e-44 5.90471e-44 5.98941e-44 6.04487e-44 6.07675e-44 6.09111e-44 6.09396e-44 6.09083e-44 6.08649e-44 6.08471e-44 6.08819e-44 6.09853e-44 6.11635e-44 6.14146e-44 6.17307e-44 6.20998e-44 6.25083e-44 6.29426e-44 6.33903e-44 6.38408e-44 6.42858e-44 6.47192e-44 6.51359e-44 6.55318e-44 6.59026e-44 6.62433e-44 6.65475e-44 6.68075e-44 6.70139e-44 6.71562e-44 6.72235e-44 6.72049e-44 6.70908e-44 6.68734e-44 6.65479e-44 6.61129e-44 6.55713e-44 6.49299e-44 6.42001e-44 6.33969e-44 6.25391e-44 6.16477e-44 6.07455e-44 5.98555e-44 5.90005e-44 5.82011e-44 5.74754e-44 5.6838e-44 5.62992e-44 5.5865e-44 5.5537e-44 5.53127e-44 5.5186e-44 5.51478e-44 5.51872e-44 5.5292e-44 5.54498e-44 5.56488e-44 5.58781e-44 5.61283e-44 5.63917e-44 5.66623e-44 5.69357e-44 5.72093e-44 5.74813e-44 5.77516e-44 5.80211e-44 5.82916e-44 5.85663e-44 5.88493e-44 5.91457e-44 5.94613e-44 5.98021e-44 6.01739e-44 6.05815e-44 6.10275e-44 6.15116e-44 6.20295e-44 6.25725e-44 6.31262e-44 6.36707e-44 6.41809e-44 6.46264e-44 6.49728e-44 6.51826e-44 6.5217e-44 6.50375e-44 6.46074e-44 6.38942e-44 6.28711e-44 6.15187e-44 5.98263e-44 5.77935e-44 5.54301e-44 5.27572e-44 4.98062e-44 4.66181e-44 4.32426e-44 3.97352e-44 3.61559e-44 3.2566e-44 2.90256e-44 2.55914e-44 2.23137e-44 1.92352e-44 1.63893e-44 1.37996e-44 1.14795e-44 9.43301e-45 7.65562e-45 6.1355e-45 4.85519e-45 3.79318e-45 2.92552e-45 2.22728e-45 1.67376e-45 1.24148e-45 9.08865e-46 6.56699e-46 4.68314e-46 3.29619e-46 2.2898e-46 1.57001e-46 1.06252e-46 7.09771e-47 4.68021e-47 3.04647e-47 1.95767e-47 1.24198e-47 7.77949e-48 4.81147e-48 2.93849e-48 1.77224e-48 1.05562e-48 6.21022e-49 3.60878e-49 2.07158e-49 1.17481e-49 6.58257e-50 3.64435e-50 1.99379e-50 1.07798e-50 5.76042e-51 3.04259e-51 1.58862e-51 8.19993e-52 4.18436e-52 2.11055e-52 1.05105e-52 5.14052e-53 2.40892e-53 9.48877e-54 0 