# vtk DataFile Version 3.0
Gray-Scott Simulation Output
ASCII
DATASET STRUCTURED_POINTS
DIMENSIONS 256 256 1
SPACING 1.0 1.0 1.0
ORIGIN 0 0 0
POINT_DATA 65536
SCALARS u double
LOOKUP_TABLE default
0 0 0 0 0 0 0 0 0 0 0 0 0 0 0 0 0 0 0 0 0 0 0 0 0 0 0 0 0 0 0 0 0 0 0 0 0 0 0 0 0 0 0 0 0 0 0 0 0 0 0 0 0 0 0 0 0 0 0 0 0 0 0 0 0 0 0 0 0 0 0 0 0 0 0 0 0 0 0 0 0 0 0 0 0 0 0 0 0 0 0 0 0 0 0 0 0 0 0 0 0 0 0 0 0 0 0 0 0 0 0 0 0 0 0 0 0 0 0 0 0 0 0 0 0 0 0 0 0 0 0 0 0 0 0 0 0 0 0 0 0 0 0 0 0 0 0 0 0 0 0 0 0 0 0 0 0 0 0 0 0 0 0 0 0 0 0 0 0 0 0 0 0 0 0 0 0 0 0 0 0 0 0 0 0 0 0 0 0 0 0 0 0 0 0 0 0 0 0 0 0 0 0 0 0 0 0 0 0 0 0 0 0 0 0 0 0 0 0 0 0 0 0 0 0 0 0 0 0 0 0 0 0 0 0 0 0 0 0 0 0 0 0 0 0 0 0 0 0 0 0 0 0 0 0 0 
0 1.13236e-167 1.87886e-166 3.07331e-165 4.97281e-164 7.9587e-163 1.25974e-161 1.97185e-160 3.0519e-159 4.67008e-158 7.06458e-157 1.05635e-155 1.5611e-154 2.27987e-153 3.28995e-152 4.69042e-151 6.60577e-150 9.18896e-149 1.26235e-147 1.71241e-146 2.29343e-145 3.03215e-144 3.95675e-143 5.09545e-142 6.47464e-141 8.11647e-140 1.00362e-138 1.22389e-137 1.47169e-136 1.74468e-135 2.03871e-134 2.34779e-133 2.66406e-132 2.97797e-131 3.2787e-130 3.55467e-129 3.79418e-128 3.98623e-127 4.1213e-126 4.1921e-125 4.1942e-124 4.12647e-123 3.99126e-122 3.79426e-121 3.54415e-120 3.25194e-119 2.93016e-118 2.59195e-117 2.25017e-116 1.91653e-115 1.60098e-114 1.31121e-113 1.05249e-112 8.2769e-112 6.37455e-111 4.80608e-110 3.54578e-109 2.55872e-108 1.80523e-107 1.24461e-106 8.38142e-106 5.51014e-105 3.53459e-104 2.2111e-103 1.34808e-102 8.00582e-102 4.62807e-101 2.60263e-100 1.4228e-99 7.55576e-99 3.89481e-98 1.94724e-97 9.43443e-97 4.42578e-96 2.00836e-95 8.8073e-95 3.72863e-94 1.52226e-93 5.98644e-93 2.26496e-92 8.23411e-92 2.87246e-91 9.60194e-91 3.07107e-90 9.38357e-90 2.73455e-89 7.58752e-89 2.00097e-88 5.00623e-88 1.18602e-87 2.65558e-87 5.60895e-87 1.11546e-86 2.08503e-86 3.65739e-86 6.01267e-86 9.25573e-86 1.33368e-85 1.79955e-85 2.27675e-85 2.70754e-85 3.03782e-85 3.23222e-85 3.28245e-85 3.20604e-85 3.03771e-85 2.81881e-85 2.58976e-85 2.38695e-85 2.24239e-85 2.18316e-85 2.22873e-85 2.38644e-85 2.64691e-85 2.98213e-85 3.34848e-85 3.69497e-85 3.9748e-85 4.15624e-85 4.22923e-85 4.20553e-85 4.1132e-85 3.98808e-85 3.86532e-85 3.77348e-85 3.73149e-85 3.7476e-85 3.81924e-85 3.93399e-85 4.07279e-85 4.21565e-85 4.34799e-85 4.46447e-85 4.5678e-85 4.66286e-85 4.74921e-85 4.81638e-85 4.8451e-85 4.81432e-85 4.71071e-85 4.53557e-85 4.30536e-85 4.04601e-85 3.78423e-85 3.53998e-85 3.32272e-85 3.13168e-85 2.95924e-85 2.7963e-85 2.63839e-85 2.49043e-85 2.36766e-85 2.29133e-85 2.28015e-85 2.34095e-85 2.46338e-85 2.62163e-85 2.78275e-85 2.9176e-85 3.00898e-85 3.0538e-85 3.05945e-85 3.03792e-85 3.00108e-85 2.95949e-85 2.924e-85 2.9075e-85 2.92418e-85 2.98508e-85 3.09199e-85 3.23317e-85 3.38413e-85 3.51352e-85 3.59192e-85 3.59997e-85 3.53349e-85 3.40488e-85 3.24099e-85 3.07818e-85 2.95546e-85 2.90707e-85 2.95637e-85 3.11208e-85 3.36696e-85 3.69851e-85 4.07114e-85 4.44045e-85 4.75993e-85 4.98971e-85 5.10491e-85 5.10021e-85 4.98819e-85 4.79163e-85 4.53314e-85 4.22709e-85 3.87786e-85 3.48468e-85 3.04954e-85 2.58336e-85 2.10696e-85 1.64705e-85 1.22966e-85 8.743e-86 5.90657e-86 3.78454e-86 2.29661e-86 1.3187e-86 7.16108e-87 3.67752e-87 1.78658e-87 8.2161e-88 3.58006e-88 1.47974e-88 5.80899e-89 2.16884e-89 7.71221e-90 2.61562e-90 8.473e-91 2.62528e-91 7.79089e-92 2.21743e-92 6.06067e-93 1.59272e-93 4.02918e-94 9.82306e-95 2.31047e-95 5.24838e-96 1.15253e-96 2.44897e-97 5.0398e-98 1.00534e-98 1.94551e-99 3.65523e-100 6.67236e-101 1.18423e-101 2.04491e-102 3.43781e-103 5.6302e-104 8.98792e-105 1.39937e-105 2.1261e-106 3.15383e-107 4.56995e-108 6.47165e-109 8.96082e-110 1.21368e-110 1.60867e-111 2.08747e-112 2.65295e-113 3.30343e-114 4.03167e-115 4.82441e-116 5.66228e-117 6.51939e-118 7.28009e-119 0 
0 1.87908e-166 3.11577e-165 5.09314e-164 8.23549e-163 1.31716e-161 2.08346e-160 3.25901e-159 5.04072e-158 7.70826e-157 1.16528e-155 1.74124e-154 2.57155e-153 3.75307e-152 5.41224e-151 7.71103e-150 1.08527e-148 1.50867e-147 2.0712e-146 2.80779e-145 3.758e-144 4.96521e-143 6.47502e-142 8.33301e-141 1.05816e-139 1.32563e-138 1.6381e-137 1.99634e-136 2.39899e-135 2.84214e-134 3.319e-133 3.81973e-132 4.3315e-131 4.8388e-130 5.32406e-129 5.76851e-128 6.15329e-127 6.46066e-126 6.67536e-125 6.78576e-124 6.7849e-123 6.67116e-122 6.44854e-121 6.12644e-120 5.71905e-119 5.24427e-118 4.72244e-117 4.1748e-116 3.62208e-115 3.08315e-114 2.57394e-113 2.10679e-112 1.69008e-111 1.3283e-110 1.02239e-109 7.70371e-109 5.68019e-108 4.09655e-107 2.8885e-106 1.99031e-105 1.33953e-104 8.80127e-104 5.64251e-103 3.52771e-102 2.14959e-101 1.27585e-100 7.37141e-100 4.14306e-99 2.26367e-98 1.20146e-97 6.18987e-97 3.09302e-96 1.49778e-95 7.02252e-95 3.18506e-94 1.39603e-93 5.9072e-93 2.41049e-92 9.47477e-92 3.58303e-91 1.30196e-90 4.53976e-90 1.51684e-89 4.84926e-89 1.48103e-88 4.31419e-88 1.19656e-87 3.15432e-87 7.88883e-87 1.86827e-86 4.18175e-86 8.82965e-86 1.75545e-85 3.28044e-85 5.75294e-85 9.4558e-85 1.45536e-84 2.09679e-84 2.82895e-84 3.57896e-84 4.25608e-84 4.7754e-84 5.08132e-84 5.16078e-84 5.04126e-84 4.77726e-84 4.43372e-84 4.07413e-84 3.7557e-84 3.52873e-84 3.43574e-84 3.50733e-84 3.75501e-84 4.16403e-84 4.69042e-84 5.26569e-84 5.80982e-84 6.24931e-84 6.53438e-84 6.64921e-84 6.61225e-84 6.46755e-84 6.27135e-84 6.07882e-84 5.9348e-84 5.869e-84 5.89437e-84 6.00683e-84 6.1869e-84 6.4047e-84 6.62887e-84 6.83653e-84 7.01932e-84 7.18148e-84 7.33063e-84 7.46609e-84 7.57145e-84 7.61646e-84 7.56814e-84 7.40557e-84 7.13071e-84 6.76936e-84 6.36217e-84 5.95102e-84 5.56725e-84 5.22573e-84 4.92533e-84 4.65411e-84 4.3978e-84 4.14941e-84 3.91667e-84 3.72354e-84 3.60341e-84 3.58569e-84 3.68114e-84 3.87354e-84 4.12232e-84 4.37572e-84 4.58792e-84 4.73184e-84 4.80257e-84 4.8117e-84 4.77804e-84 4.72025e-84 4.65496e-84 4.59921e-84 4.57328e-84 4.59945e-84 4.69508e-84 4.86296e-84 5.0847e-84 5.32182e-84 5.5251e-84 5.64834e-84 5.66113e-84 5.55691e-84 5.35509e-84 5.09785e-84 4.84229e-84 4.64963e-84 4.57366e-84 4.65104e-84 4.89546e-84 5.29557e-84 5.816e-84 6.4009e-84 6.98056e-84 7.482e-84 7.8427e-84 8.02359e-84 8.01632e-84 7.8406e-84 7.5321e-84 7.12622e-84 6.64547e-84 6.09673e-84 5.47879e-84 4.79484e-84 4.06204e-84 3.31315e-84 2.59012e-84 1.93391e-84 1.37517e-84 9.29141e-85 5.95414e-85 3.61379e-85 2.0754e-85 1.12726e-85 5.79031e-86 2.81372e-86 1.29433e-86 5.6416e-87 2.33259e-87 9.16016e-88 3.42127e-88 1.21704e-88 4.12925e-89 1.33817e-89 4.14795e-90 1.2315e-90 3.50663e-91 9.5887e-92 2.52104e-92 6.38065e-93 1.55635e-93 3.66246e-94 8.32369e-95 1.82878e-95 3.88792e-96 8.00521e-97 1.59772e-97 3.09352e-98 5.81523e-99 1.0621e-99 1.88608e-100 3.25867e-101 5.48136e-102 8.98201e-103 1.43467e-103 2.23499e-104 3.39761e-105 5.04287e-106 7.31144e-107 1.036e-107 1.43531e-108 1.94517e-109 2.57976e-110 3.34956e-111 4.25949e-112 5.30706e-113 6.48091e-114 7.75993e-115 9.11314e-116 1.0499e-116 1.17311e-117 0 
0 3.07406e-165 5.09377e-164 8.3208e-163 1.34454e-161 2.14896e-160 3.39691e-159 5.30997e-158 8.20741e-157 1.25423e-155 1.89478e-154 2.82943e-153 4.17585e-152 6.0904e-151 8.77701e-150 1.24966e-148 1.75764e-147 2.44173e-146 3.34996e-145 4.53831e-144 6.07016e-143 8.01483e-142 1.04451e-140 1.34335e-139 1.70472e-138 2.13423e-137 2.63558e-136 3.20986e-135 3.85477e-134 4.56389e-133 5.32618e-132 6.12578e-131 6.94203e-130 7.75009e-129 8.52185e-128 9.22736e-127 9.83657e-126 1.03214e-124 1.06576e-123 1.0827e-122 1.08188e-121 1.06308e-120 1.02696e-119 9.75051e-119 9.09646e-118 8.33611e-117 7.50197e-116 6.62791e-115 5.74688e-114 4.8888e-113 4.07888e-112 3.33657e-111 2.67499e-110 2.10111e-109 1.61625e-108 1.21712e-107 8.96884e-107 6.4645e-106 4.55546e-105 3.13708e-104 2.1101e-103 1.38562e-102 8.87812e-102 5.54744e-101 3.37838e-100 2.00404e-99 1.15721e-98 6.50043e-98 3.54971e-97 1.88301e-96 9.69588e-96 4.84232e-95 2.34362e-94 1.09826e-93 4.97853e-93 2.181e-92 9.22403e-92 3.76206e-91 1.478e-90 5.58657e-90 2.02902e-89 7.07158e-89 2.3617e-88 7.54687e-88 2.30392e-87 6.70837e-87 1.85985e-86 4.9009e-86 1.22523e-85 2.90062e-85 6.49028e-85 1.36997e-84 2.72289e-84 5.08698e-84 8.91899e-84 1.46567e-83 2.25546e-83 3.24911e-83 4.38326e-83 5.54506e-83 6.59411e-83 7.39893e-83 7.87344e-83 7.99734e-83 7.81311e-83 7.40505e-83 6.87366e-83 6.3173e-83 5.82454e-83 5.4733e-83 5.32941e-83 5.44025e-83 5.82361e-83 6.45665e-83 7.27132e-83 8.16164e-83 9.00382e-83 9.68415e-83 1.01256e-82 1.03036e-82 1.02468e-82 1.00233e-82 9.72011e-83 9.42253e-83 9.19995e-83 9.09834e-83 9.13768e-83 9.31169e-83 9.59021e-83 9.92703e-83 1.02737e-82 1.05949e-82 1.08776e-82 1.11284e-82 1.1359e-82 1.15684e-82 1.17313e-82 1.18009e-82 1.17261e-82 1.14747e-82 1.10496e-82 1.04906e-82 9.86046e-83 9.22401e-83 8.62969e-83 8.1006e-83 7.63502e-83 7.21456e-83 6.81718e-83 6.43208e-83 6.07125e-83 5.77179e-83 5.58544e-83 5.55775e-83 5.70546e-83 6.00344e-83 6.38893e-83 6.78174e-83 7.11086e-83 7.33428e-83 7.44431e-83 7.45885e-83 7.40699e-83 7.31765e-83 7.21662e-83 7.1303e-83 7.09013e-83 7.1306e-83 7.27859e-83 7.53844e-83 7.88167e-83 8.24875e-83 8.56352e-83 8.75448e-83 8.77452e-83 8.61346e-83 8.30134e-83 7.90341e-83 7.50804e-83 7.20995e-83 7.09238e-83 7.21209e-83 7.59024e-83 8.20926e-83 9.0144e-83 9.91924e-83 1.08159e-82 1.15917e-82 1.21497e-82 1.24296e-82 1.24186e-82 1.21469e-82 1.16697e-82 1.10415e-82 1.02973e-82 9.44743e-83 8.49023e-83 7.43065e-83 6.29532e-83 5.13499e-83 4.01468e-83 2.99781e-83 2.1319e-83 1.44061e-83 9.23303e-84 5.60478e-84 3.21942e-84 1.749e-84 8.98604e-85 4.36775e-85 2.00977e-85 8.76261e-86 3.62418e-86 1.42372e-86 5.31944e-87 1.89298e-87 6.42518e-88 2.08307e-88 6.45965e-89 1.91866e-89 5.46572e-90 1.49526e-90 3.93314e-91 9.95935e-92 2.43043e-92 5.72222e-93 1.30114e-93 2.86016e-94 6.08372e-95 1.25329e-95 2.50269e-96 4.84832e-97 9.11885e-98 1.66639e-98 2.96079e-99 5.11832e-100 8.61425e-101 1.41236e-101 2.25721e-102 3.51837e-103 5.35168e-104 7.94776e-105 1.15298e-105 1.63468e-106 2.26608e-107 3.07286e-108 4.07776e-109 5.29773e-110 6.74094e-111 8.40385e-112 1.02689e-112 1.23029e-113 1.44572e-114 1.6666e-115 1.86329e-116 0 
0 4.97466e-164 8.23754e-163 1.34471e-161 2.17143e-160 3.46822e-159 5.47859e-158 8.55824e-157 1.32193e-155 2.01878e-154 3.04774e-153 4.54807e-152 6.70785e-151 9.77674e-150 1.40801e-148 2.00339e-147 2.81587e-146 3.90925e-145 5.35979e-144 7.25631e-143 9.6992e-142 1.27981e-140 1.66678e-139 2.14225e-138 2.71676e-137 3.39902e-136 4.19475e-135 5.10547e-134 6.12726e-133 7.24972e-132 8.45517e-131 9.71824e-130 1.10061e-128 1.22794e-127 1.34935e-126 1.46013e-125 1.55554e-124 1.63117e-123 1.68324e-122 1.70892e-121 1.70655e-120 1.67584e-119 1.61788e-118 1.53515e-117 1.43129e-116 1.31084e-115 1.17894e-114 1.04094e-113 9.02018e-113 7.66866e-112 6.39432e-111 5.22745e-110 4.18842e-109 3.28787e-108 2.52764e-107 1.9023e-106 1.40096e-105 1.00918e-104 7.10737e-104 4.89157e-103 3.28832e-102 2.15806e-101 1.38195e-100 8.63007e-100 5.25271e-99 3.11413e-98 1.79722e-97 1.00899e-96 5.50682e-96 2.91959e-95 1.50253e-94 7.49992e-94 3.62793e-93 1.69921e-92 7.69874e-92 3.37094e-91 1.42494e-90 5.80879e-90 2.28098e-89 8.61752e-89 3.12836e-88 1.0898e-87 3.63795e-87 1.162e-86 3.54583e-86 1.03202e-85 2.86003e-85 7.53356e-85 1.8827e-84 4.45552e-84 9.96612e-84 2.103e-83 4.17862e-83 7.80457e-83 1.36806e-82 2.24771e-82 3.45834e-82 4.98129e-82 6.71948e-82 8.50012e-82 1.01081e-81 1.13422e-81 1.20704e-81 1.22616e-81 1.19807e-81 1.13567e-81 1.05435e-81 9.6918e-82 8.93738e-82 8.3996e-82 8.17933e-82 8.3491e-82 8.93615e-82 9.90548e-82 1.11529e-81 1.25162e-81 1.38058e-81 1.48478e-81 1.55241e-81 1.57972e-81 1.57109e-81 1.53693e-81 1.49057e-81 1.44506e-81 1.41103e-81 1.39551e-81 1.40155e-81 1.42818e-81 1.4708e-81 1.52234e-81 1.57538e-81 1.62452e-81 1.66778e-81 1.70615e-81 1.74144e-81 1.77348e-81 1.79838e-81 1.80901e-81 1.79757e-81 1.7591e-81 1.69405e-81 1.60849e-81 1.51203e-81 1.41455e-81 1.32349e-81 1.2424e-81 1.17101e-81 1.10652e-81 1.04556e-81 9.86488e-82 9.31139e-82 8.85198e-82 8.56596e-82 8.52316e-82 8.74928e-82 9.20591e-82 9.79689e-82 1.03994e-81 1.09044e-81 1.12476e-81 1.14169e-81 1.14398e-81 1.13608e-81 1.12241e-81 1.10695e-81 1.09372e-81 1.08757e-81 1.09376e-81 1.11642e-81 1.15621e-81 1.20877e-81 1.265e-81 1.31322e-81 1.34249e-81 1.3456e-81 1.32098e-81 1.27322e-81 1.21232e-81 1.1518e-81 1.10617e-81 1.08817e-81 1.10649e-81 1.16437e-81 1.25913e-81 1.38236e-81 1.52085e-81 1.65809e-81 1.77681e-81 1.86222e-81 1.90509e-81 1.90342e-81 1.86187e-81 1.78883e-81 1.69266e-81 1.57865e-81 1.44844e-81 1.30174e-81 1.13933e-81 9.65303e-82 7.8743e-82 6.1568e-82 4.59777e-82 3.27006e-82 2.20997e-82 1.41659e-82 8.60059e-83 4.94114e-83 2.6849e-83 1.37977e-83 6.70823e-84 3.08756e-84 1.34659e-84 5.57121e-85 2.18933e-85 8.18293e-86 2.91308e-86 9.89149e-87 3.20815e-87 9.95274e-88 2.95746e-88 8.42871e-89 2.30689e-89 6.07087e-90 1.53797e-90 3.75499e-91 8.8451e-92 2.01223e-92 4.42551e-93 9.41814e-94 1.94121e-94 3.87843e-95 7.51743e-96 1.41466e-96 2.58655e-97 4.59822e-98 7.95332e-99 1.33931e-99 2.19711e-100 3.51336e-101 5.47947e-102 8.3394e-103 1.23919e-103 1.79874e-104 2.5517e-105 3.53938e-106 4.80232e-107 6.37657e-108 8.28922e-109 1.05537e-109 1.3165e-110 1.60964e-111 1.92965e-112 2.26891e-113 2.61715e-114 2.92778e-115 0 
0 7.96267e-163 1.31766e-161 2.14951e-160 3.46867e-159 5.53645e-158 8.7398e-157 1.36435e-155 2.10599e-154 3.214e-153 4.84893e-152 7.23111e-151 1.06579e-149 1.55236e-148 2.23417e-147 3.17678e-146 4.46219e-145 6.19072e-144 8.48221e-143 1.1476e-141 1.53294e-140 2.02139e-139 2.63086e-138 3.37914e-137 4.28257e-136 5.35457e-135 6.60381e-134 8.03234e-133 9.63367e-132 1.13911e-130 1.32766e-129 1.52501e-128 1.726e-127 1.92445e-126 2.11338e-125 2.28543e-124 2.43323e-123 2.54991e-122 2.62965e-121 2.66809e-120 2.66271e-119 2.61315e-118 2.52122e-117 2.39081e-116 2.22766e-115 2.03893e-114 1.83265e-113 1.61713e-112 1.40046e-111 1.1899e-110 9.91563e-110 8.10127e-109 6.48712e-108 5.08927e-107 3.91018e-106 2.94105e-105 2.16467e-104 1.5584e-103 1.0969e-102 7.54488e-102 5.06904e-101 3.32481e-100 2.12787e-99 1.32807e-98 8.07877e-98 4.78691e-97 2.76107e-96 1.54926e-95 8.45083e-95 4.478e-94 2.3033e-93 1.14909e-92 5.55554e-92 2.60069e-91 1.17771e-90 5.15404e-90 2.17758e-89 8.87254e-89 3.48235e-88 1.315e-87 4.7715e-87 1.66143e-86 5.54367e-86 1.76993e-85 5.39862e-85 1.57062e-84 4.3509e-84 1.14562e-83 2.86195e-83 6.7706e-83 1.51395e-82 3.19367e-82 6.34397e-82 1.18458e-81 2.07598e-81 3.41014e-81 5.24602e-81 7.55527e-81 1.01908e-80 1.28907e-80 1.53292e-80 1.72013e-80 1.8307e-80 1.85989e-80 1.81751e-80 1.72311e-80 1.6e-80 1.47102e-80 1.35676e-80 1.2753e-80 1.24194e-80 1.26766e-80 1.3566e-80 1.50343e-80 1.69239e-80 1.8989e-80 2.09427e-80 2.25214e-80 2.35465e-80 2.39611e-80 2.38312e-80 2.33149e-80 2.26136e-80 2.19252e-80 2.14104e-80 2.11757e-80 2.12674e-80 2.16708e-80 2.2316e-80 2.30961e-80 2.38989e-80 2.46427e-80 2.52975e-80 2.58784e-80 2.64125e-80 2.68973e-80 2.72741e-80 2.74349e-80 2.72616e-80 2.66793e-80 2.56946e-80 2.43991e-80 2.29381e-80 2.14613e-80 2.00811e-80 1.88513e-80 1.77683e-80 1.67898e-80 1.58647e-80 1.49683e-80 1.41283e-80 1.34311e-80 1.29967e-80 1.29313e-80 1.32737e-80 1.3966e-80 1.48624e-80 1.57765e-80 1.65433e-80 1.70648e-80 1.73227e-80 1.73583e-80 1.72391e-80 1.70324e-80 1.67981e-80 1.65977e-80 1.65043e-80 1.6598e-80 1.69412e-80 1.7544e-80 1.83404e-80 1.91923e-80 1.99232e-80 2.03672e-80 2.04148e-80 2.00424e-80 1.93195e-80 1.83974e-80 1.7481e-80 1.679e-80 1.65174e-80 1.67949e-80 1.76714e-80 1.91061e-80 2.09722e-80 2.30691e-80 2.5147e-80 2.69446e-80 2.82379e-80 2.88872e-80 2.88624e-80 2.82335e-80 2.71277e-80 2.56709e-80 2.39434e-80 2.19696e-80 1.97454e-80 1.72827e-80 1.46436e-80 1.1946e-80 9.3411e-81 6.97636e-81 4.9623e-81 3.35402e-81 2.15023e-81 1.30568e-81 7.50268e-82 4.07762e-82 2.09597e-82 1.01928e-82 4.69269e-83 2.04724e-83 8.4727e-84 3.33066e-84 1.24532e-84 4.43492e-85 1.50648e-85 4.88801e-86 1.51705e-86 4.50984e-87 1.28586e-87 3.52091e-88 9.26998e-89 2.34952e-89 5.73915e-90 1.35255e-90 3.07853e-91 6.774e-92 1.44234e-92 2.97439e-93 5.94577e-94 1.15306e-94 2.17101e-95 3.97161e-96 7.06432e-97 1.22255e-97 2.05986e-98 3.38106e-99 5.40962e-100 8.44165e-101 1.2855e-101 1.91128e-102 2.77589e-103 3.94019e-104 5.46849e-105 7.42413e-106 9.86364e-107 1.28299e-107 1.63444e-108 2.04008e-109 2.49583e-110 2.99383e-111 3.52233e-112 4.06542e-113 4.55066e-114 0 
0 1.26054e-161 2.08452e-160 3.39822e-159 5.48001e-158 8.74094e-157 1.37891e-155 2.15114e-154 3.31825e-153 5.06067e-152 7.62988e-151 1.13707e-149 1.67481e-148 2.4378e-147 3.50618e-146 4.98214e-145 6.99342e-144 9.69609e-143 1.32763e-141 1.79504e-140 2.39621e-139 3.15765e-138 4.10704e-137 5.27172e-136 6.6768e-135 8.34269e-134 1.02824e-132 1.24986e-131 1.49806e-130 1.77021e-129 2.0619e-128 2.36687e-127 2.6771e-126 2.98299e-125 3.27377e-124 3.53803e-123 3.76445e-122 3.94248e-121 4.06321e-120 4.12e-119 4.10914e-118 4.03014e-117 3.88592e-116 3.68264e-115 3.42922e-114 3.13676e-113 2.81767e-112 2.4848e-111 2.15055e-110 1.82611e-109 1.52081e-108 1.24178e-107 9.93763e-107 7.79161e-106 5.98288e-105 4.49737e-104 3.30821e-103 2.38026e-102 1.6744e-101 1.15105e-100 7.72887e-100 5.06649e-99 3.2407e-98 2.02148e-97 1.22899e-96 7.27806e-96 4.19563e-95 2.35292e-94 1.28275e-93 6.79351e-93 3.49244e-92 1.74141e-91 8.41484e-91 3.93715e-90 1.782e-89 7.79469e-89 3.29161e-88 1.34051e-87 5.25875e-87 1.98485e-86 7.19873e-86 2.50545e-85 8.35613e-85 2.6667e-84 8.13048e-84 2.36442e-83 6.54729e-83 1.72329e-82 4.30348e-82 1.01773e-81 2.27497e-81 4.79758e-81 9.52732e-81 1.77854e-80 3.11619e-80 5.11788e-80 7.87189e-80 1.13357e-79 1.52886e-79 1.93383e-79 2.29965e-79 2.58058e-79 2.74666e-79 2.79074e-79 2.72752e-79 2.58625e-79 2.40189e-79 2.20868e-79 2.03748e-79 1.91543e-79 1.86545e-79 1.90401e-79 2.03728e-79 2.2573e-79 2.54044e-79 2.84989e-79 3.14266e-79 3.37926e-79 3.53295e-79 3.5952e-79 3.57589e-79 3.49868e-79 3.39374e-79 3.29073e-79 3.2137e-79 3.17862e-79 3.19239e-79 3.25282e-79 3.34944e-79 3.46623e-79 3.58643e-79 3.69781e-79 3.79586e-79 3.88283e-79 3.9628e-79 4.03536e-79 4.09176e-79 4.11581e-79 4.08986e-79 4.00267e-79 3.85521e-79 3.66118e-79 3.44229e-79 3.22096e-79 3.01402e-79 2.82955e-79 2.66704e-79 2.52016e-79 2.3813e-79 2.24673e-79 2.12063e-79 2.01594e-79 1.9507e-79 1.94079e-79 1.9921e-79 2.09591e-79 2.2304e-79 2.36762e-79 2.48278e-79 2.56117e-79 2.60002e-79 2.6055e-79 2.58773e-79 2.55678e-79 2.52167e-79 2.49163e-79 2.47762e-79 2.49165e-79 2.54307e-79 2.6334e-79 2.75275e-79 2.88046e-79 2.99004e-79 3.05664e-79 3.06387e-79 3.00815e-79 2.89992e-79 2.76182e-79 2.62455e-79 2.52104e-79 2.4802e-79 2.52175e-79 2.65304e-79 2.86795e-79 3.14746e-79 3.46153e-79 3.77274e-79 4.04196e-79 4.23567e-79 4.33296e-79 4.3293e-79 4.23517e-79 4.06955e-79 3.85128e-79 3.59234e-79 3.29637e-79 2.96279e-79 2.59339e-79 2.19748e-79 1.79278e-79 1.40197e-79 1.04715e-79 7.44916e-80 5.03551e-80 3.22867e-80 1.96086e-80 1.12694e-80 6.12605e-81 3.14961e-81 1.53206e-81 7.05538e-82 3.07889e-82 1.27463e-82 5.0123e-83 1.87474e-83 6.6789e-84 2.2696e-84 7.36698e-85 2.28736e-85 6.8027e-86 1.94045e-86 5.31566e-87 1.40016e-87 3.55044e-88 8.67672e-89 2.04583e-89 4.65879e-90 1.02563e-90 2.18491e-91 4.50802e-92 9.01613e-93 1.7494e-93 3.29558e-94 6.03209e-95 1.07351e-95 1.85883e-96 3.13364e-97 5.1464e-98 8.23872e-99 1.28637e-99 1.95999e-100 2.91578e-101 4.23724e-102 6.01794e-103 8.35699e-104 1.13522e-104 1.50914e-105 1.96413e-106 2.50366e-107 3.12689e-108 3.82772e-109 4.59423e-110 5.40851e-111 6.24621e-112 6.9959e-113 0 
0 1.97335e-160 3.26111e-159 5.31272e-158 8.56161e-157 1.36471e-155 2.15143e-154 3.35404e-153 5.17033e-152 7.88002e-151 1.18726e-149 1.76819e-148 2.60266e-147 3.78584e-146 5.44139e-145 7.7269e-144 1.08391e-142 1.5018e-141 2.05499e-140 2.77665e-139 3.70412e-138 4.87799e-137 6.34048e-136 8.13324e-135 1.02943e-133 1.28544e-132 1.58329e-131 1.9233e-130 2.30375e-129 2.72052e-128 3.16676e-127 3.63282e-126 4.10636e-125 4.57265e-124 5.01519e-123 5.4166e-122 5.75959e-121 6.02818e-120 6.20887e-119 6.29172e-118 6.2712e-117 6.14681e-116 5.92317e-115 5.60984e-114 5.22058e-113 4.77241e-112 4.28431e-111 3.77587e-110 3.26596e-109 2.77156e-108 2.3068e-107 1.88243e-106 1.50556e-105 1.17973e-104 9.05335e-104 6.80145e-103 5.00012e-102 3.59549e-101 2.52778e-100 1.73669e-99 1.16546e-98 7.63556e-98 4.88119e-97 3.04306e-96 1.84905e-95 1.09439e-94 6.30544e-94 3.53417e-93 1.9257e-92 1.01931e-91 5.23732e-91 2.61007e-90 1.26058e-89 5.895e-89 2.66679e-88 1.1659e-87 4.92102e-87 2.0031e-86 7.85431e-86 2.96312e-85 1.07417e-84 3.73686e-84 1.24576e-83 3.97389e-83 1.21109e-82 3.52052e-82 9.74478e-82 2.56392e-81 6.40042e-81 1.51312e-80 3.38123e-80 7.12837e-80 1.4152e-79 2.64122e-79 4.62666e-79 7.59715e-79 1.16835e-78 1.68224e-78 2.26868e-78 2.8695e-78 3.41231e-78 3.82932e-78 4.07607e-78 4.14193e-78 4.04864e-78 3.83956e-78 3.5665e-78 3.28022e-78 3.02652e-78 2.84564e-78 2.77158e-78 2.82873e-78 3.02625e-78 3.35235e-78 3.77198e-78 4.23061e-78 4.66455e-78 5.0153e-78 5.24321e-78 5.33565e-78 5.30726e-78 5.19306e-78 5.03776e-78 4.88529e-78 4.77131e-78 4.71943e-78 4.73989e-78 4.82942e-78 4.97252e-78 5.14549e-78 5.32349e-78 5.48843e-78 5.63364e-78 5.76244e-78 5.88085e-78 5.98829e-78 6.07176e-78 6.10735e-78 6.06891e-78 5.93979e-78 5.72139e-78 5.43396e-78 5.1096e-78 4.7815e-78 4.47461e-78 4.20093e-78 3.95973e-78 3.74167e-78 3.53548e-78 3.33566e-78 3.14843e-78 2.99295e-78 2.896e-78 2.88117e-78 2.9572e-78 3.1112e-78 3.31079e-78 3.51452e-78 3.6856e-78 3.80215e-78 3.86003e-78 3.86838e-78 3.84216e-78 3.79635e-78 3.74432e-78 3.69977e-78 3.67898e-78 3.69975e-78 3.77595e-78 3.90983e-78 4.08675e-78 4.27608e-78 4.43859e-78 4.53742e-78 4.54826e-78 4.46582e-78 4.30552e-78 4.10095e-78 3.89759e-78 3.74423e-78 3.68371e-78 3.74526e-78 3.93978e-78 4.25818e-78 4.67226e-78 5.13752e-78 5.59854e-78 5.99735e-78 6.28433e-78 6.4285e-78 6.42317e-78 6.2838e-78 6.03846e-78 5.71499e-78 5.33108e-78 4.89214e-78 4.39729e-78 3.84921e-78 3.26178e-78 2.66125e-78 2.08127e-78 1.55467e-78 1.10608e-78 7.47782e-79 4.7953e-79 2.91277e-79 1.67433e-79 9.10347e-80 4.68145e-80 2.27775e-80 1.04922e-80 4.58003e-81 1.89667e-81 7.46084e-82 2.79153e-82 9.94866e-83 3.382e-83 1.09821e-83 3.4112e-84 1.01493e-84 2.8963e-85 7.93761e-86 2.09174e-86 5.30653e-87 1.29744e-87 3.06063e-88 6.97309e-89 1.53588e-89 3.27354e-90 6.75757e-91 1.35222e-91 2.62508e-92 4.94781e-93 9.06109e-94 1.61343e-94 2.79524e-95 4.71483e-96 7.74747e-97 1.24096e-97 1.93868e-98 2.95556e-99 4.39932e-100 6.39679e-101 9.09027e-102 1.26308e-102 1.71678e-103 2.28358e-104 2.9738e-105 3.79292e-106 4.7399e-107 5.80571e-108 6.9725e-109 8.21325e-110 9.4911e-111 1.06366e-111 0 
0 3.05465e-159 5.04465e-158 8.21279e-157 1.32263e-155 2.10683e-154 3.31914e-153 5.17103e-152 7.96594e-151 1.21327e-149 1.82679e-148 2.71881e-147 3.99927e-146 5.8135e-145 8.35023e-144 1.18497e-142 1.66115e-141 2.30008e-140 3.14524e-139 4.24699e-138 5.6619e-137 7.45133e-136 9.67905e-135 1.24077e-133 1.56943e-132 1.95848e-131 2.41071e-130 2.92652e-129 3.50317e-128 4.13426e-127 4.80932e-126 5.51361e-125 6.22834e-124 6.93117e-123 7.59716e-122 8.20003e-121 8.71378e-120 9.11441e-119 9.38173e-118 9.50096e-117 9.46408e-116 9.27059e-115 8.92778e-114 8.45028e-113 7.8591e-112 7.18002e-111 6.44174e-110 5.67381e-109 4.90463e-108 4.15965e-107 3.46004e-106 2.82183e-105 2.25554e-104 1.76636e-103 1.35471e-102 1.01715e-101 7.47324e-101 5.37074e-100 3.77368e-99 2.59118e-98 1.73789e-97 1.13794e-96 7.27042e-96 4.53004e-95 2.75104e-94 1.62736e-93 9.371e-93 5.24954e-92 2.85883e-91 1.51243e-90 7.7669e-90 3.86868e-89 1.86748e-88 8.72865e-88 3.94668e-87 1.7246e-86 7.27559e-86 2.96009e-85 1.16012e-84 4.37462e-84 1.58514e-83 5.51193e-83 1.83671e-82 5.85646e-82 1.78408e-81 5.18406e-81 1.43439e-80 3.77255e-80 9.41423e-80 2.22486e-79 4.97009e-79 1.04749e-78 2.07903e-78 3.87916e-78 6.7937e-78 1.11534e-77 1.715e-77 2.46904e-77 3.32951e-77 4.21111e-77 5.00771e-77 5.61992e-77 5.98249e-77 6.07982e-77 5.94371e-77 5.63768e-77 5.23768e-77 4.81819e-77 4.44637e-77 4.18126e-77 4.0727e-77 4.15649e-77 4.44602e-77 4.924e-77 5.53907e-77 6.21133e-77 6.84743e-77 7.36166e-77 7.69593e-77 7.8317e-77 7.79041e-77 7.62336e-77 7.39607e-77 7.1729e-77 7.00607e-77 6.9302e-77 6.96027e-77 7.09146e-77 7.30107e-77 7.5544e-77 7.81509e-77 8.05666e-77 8.26934e-77 8.45799e-77 8.63139e-77 8.7887e-77 8.9109e-77 8.96299e-77 8.90667e-77 8.71756e-77 8.39765e-77 7.97655e-77 7.5012e-77 7.02019e-77 6.57009e-77 6.16853e-77 5.81447e-77 5.49428e-77 5.1915e-77 4.89806e-77 4.62308e-77 4.39471e-77 4.25223e-77 4.23027e-77 4.34169e-77 4.56762e-77 4.86058e-77 5.15975e-77 5.4111e-77 5.5825e-77 5.6678e-77 5.68035e-77 5.64211e-77 5.57503e-77 5.49877e-77 5.43345e-77 5.40293e-77 5.43334e-77 5.54501e-77 5.74125e-77 6.00063e-77 6.27823e-77 6.51657e-77 6.6616e-77 6.6777e-77 6.55705e-77 6.32228e-77 6.02258e-77 5.72463e-77 5.4999e-77 5.41121e-77 5.5014e-77 5.7864e-77 6.25292e-77 6.85961e-77 7.54127e-77 8.21667e-77 8.80093e-77 9.2214e-77 9.4327e-77 9.42502e-77 9.22094e-77 8.86151e-77 8.38741e-77 7.82449e-77 7.18067e-77 6.45465e-77 5.65044e-77 4.78839e-77 3.90706e-77 3.05583e-77 2.28287e-77 1.62433e-77 1.09829e-77 7.04397e-78 4.27934e-78 2.4603e-78 1.33796e-78 6.88195e-79 3.34921e-79 1.54319e-79 6.73821e-80 2.79127e-80 1.09834e-80 4.11095e-81 1.46562e-81 4.98415e-82 1.61909e-82 5.03117e-83 1.49754e-83 4.27534e-84 1.17221e-84 3.09043e-85 7.8437e-86 1.91868e-86 4.52825e-87 1.03218e-87 2.27457e-88 4.85036e-89 1.00177e-89 2.0056e-90 3.89551e-91 7.34618e-92 1.34604e-92 2.39806e-93 4.15683e-94 7.01528e-95 1.15339e-95 1.84848e-96 2.88937e-97 4.40738e-98 6.56406e-99 9.54983e-100 1.35787e-100 1.88782e-101 2.56742e-102 3.41705e-103 4.45248e-104 5.68224e-105 7.10512e-106 8.70796e-107 1.04643e-107 1.23338e-108 1.42613e-109 1.59919e-110 0 
0 4.67493e-158 7.71534e-157 1.25523e-155 2.02012e-154 3.21574e-153 5.06274e-152 7.88219e-151 1.21344e-149 1.84692e-148 2.77901e-147 4.13327e-146 6.07585e-145 8.82628e-144 1.26693e-142 1.79669e-141 2.51703e-140 3.48289e-139 4.75955e-138 6.42257e-137 8.55669e-136 1.12537e-134 1.46087e-133 1.87149e-132 2.3657e-131 2.95021e-130 3.62911e-129 4.40278e-128 5.26694e-127 6.2118e-126 7.22146e-125 8.27372e-124 9.3403e-123 1.03877e-121 1.13786e-120 1.22738e-119 1.30346e-118 1.36254e-117 1.40162e-116 1.41855e-115 1.41217e-114 1.38244e-113 1.3305e-112 1.25856e-111 1.16979e-110 1.06806e-109 9.57657e-109 8.42982e-108 7.28261e-107 6.17271e-106 5.13146e-105 4.18245e-104 3.34112e-103 2.61495e-102 2.00437e-101 1.50404e-100 1.10441e-99 7.9324e-99 5.57038e-98 3.8227e-97 2.5624e-96 1.67687e-95 1.07076e-94 6.66797e-94 4.04714e-93 2.39274e-92 1.37709e-91 7.71014e-91 4.19659e-90 2.21897e-89 1.13893e-88 5.67003e-88 2.73562e-87 1.27798e-86 5.77553e-86 2.5225e-85 1.06366e-84 4.32543e-84 1.69442e-83 6.38641e-83 2.31305e-82 8.03949e-82 2.67779e-81 8.53466e-81 2.59888e-80 7.54864e-80 2.08784e-79 5.48916e-79 1.36931e-78 3.23499e-78 7.22434e-78 1.52215e-77 3.0203e-77 5.63406e-77 9.86499e-77 1.61927e-76 2.48948e-76 3.58364e-76 4.83218e-76 6.11143e-76 7.26754e-76 8.15635e-76 8.68326e-76 8.82551e-76 8.62915e-76 8.1862e-76 7.60679e-76 6.99892e-76 6.46003e-76 6.07578e-76 5.91844e-76 6.0399e-76 6.45957e-76 7.15239e-76 8.04391e-76 9.01834e-76 9.94042e-76 1.0686e-75 1.11708e-75 1.1368e-75 1.13086e-75 1.1067e-75 1.0738e-75 1.0415e-75 1.01735e-75 1.00638e-75 1.01075e-75 1.02976e-75 1.06012e-75 1.09681e-75 1.13457e-75 1.16955e-75 1.20036e-75 1.22768e-75 1.25279e-75 1.27557e-75 1.29326e-75 1.30079e-75 1.29264e-75 1.26525e-75 1.21891e-75 1.1579e-75 1.08902e-75 1.01928e-75 9.54001e-76 8.95733e-76 8.44339e-76 7.97848e-76 7.53877e-76 7.11262e-76 6.71327e-76 6.38155e-76 6.17447e-76 6.14231e-76 6.30378e-76 6.63156e-76 7.05679e-76 7.49123e-76 7.85645e-76 8.10573e-76 8.23004e-76 8.2487e-76 8.19353e-76 8.09642e-76 7.98588e-76 7.89114e-76 7.84684e-76 7.89086e-76 8.0527e-76 8.33716e-76 8.71319e-76 9.1157e-76 9.46137e-76 9.67186e-76 9.69548e-76 9.5209e-76 9.18087e-76 8.7467e-76 8.31499e-76 7.98936e-76 7.86084e-76 7.9915e-76 8.40445e-76 9.0804e-76 9.9594e-76 1.0947e-75 1.19254e-75 1.27719e-75 1.33811e-75 1.36873e-75 1.36764e-75 1.33809e-75 1.28601e-75 1.2173e-75 1.13568e-75 1.04229e-75 9.36959e-76 8.20263e-76 6.95162e-76 5.67254e-76 4.43703e-76 3.31501e-76 2.35899e-76 1.59522e-76 1.02325e-76 6.21744e-77 3.5752e-77 1.94464e-77 1.00047e-77 4.87012e-78 2.24456e-78 9.80344e-79 4.06226e-79 1.59898e-79 5.98679e-80 2.13514e-80 7.26371e-81 2.36051e-81 7.33798e-82 2.18505e-82 6.24079e-83 1.71184e-83 4.51511e-84 1.14648e-84 2.80574e-85 6.62492e-86 1.51082e-86 3.33095e-87 7.10653e-88 1.46847e-88 2.94148e-89 5.71621e-90 1.07853e-90 1.97722e-91 3.52441e-92 6.11253e-93 1.03214e-93 1.69788e-94 2.72259e-95 4.25806e-96 6.49877e-97 9.68427e-98 1.40973e-98 2.00561e-99 2.78996e-100 3.7965e-101 5.05579e-102 6.59163e-103 8.41716e-104 1.05311e-104 1.29144e-105 1.55284e-106 1.83135e-107 2.11883e-108 2.37735e-109 0 