# vtk DataFile Version 3.0
Gray-Scott Simulation Output
ASCII
DATASET STRUCTURED_POINTS
DIMENSIONS 256 256 1
SPACING 1.0 1.0 1.0
ORIGIN 0 0 0
POINT_DATA 65536
SCALARS u double
LOOKUP_TABLE default
0 0 0 0 0 0 0 0 0 0 0 0 0 0 0 0 0 0 0 0 0 0 0 0 0 0 0 0 0 0 0 0 0 0 0 0 0 0 0 0 0 0 0 0 0 0 0 0 0 0 0 0 0 0 0 0 0 0 0 0 0 0 0 0 0 0 0 0 0 0 0 0 0 0 0 0 0 0 0 0 0 0 0 0 0 0 0 0 0 0 0 0 0 0 0 0 0 0 0 0 0 0 0 0 0 0 0 0 0 0 0 0 0 0 0 0 0 0 0 0 0 0 0 0 0 0 0 0 0 0 0 0 0 0 0 0 0 0 0 0 0 0 0 0 0 0 0 0 0 0 0 0 0 0 0 0 0 0 0 0 0 0 0 0 0 0 0 0 0 0 0 0 0 0 0 0 0 0 0 0 0 0 0 0 0 0 0 0 0 0 0 0 0 0 0 0 0 0 0 0 0 0 0 0 0 0 0 0 0 0 0 0 0 0 0 0 0 0 0 0 0 0 0 0 0 0 0 0 0 0 0 0 0 0 0 0 0 0 0 0 0 0 0 0 0 0 0 0 0 0 0 0 0 0 0 0 
0 0 0 0 0 0 0 0 0 0 0 0 0 0 0 0 0 0 0 0 0 0 0 0 0 0 0 0 1.87745e-322 1.00305e-319 5.18258e-317 2.56003e-314 1.20986e-311 5.47391e-309 2.37245e-306 9.85531e-304 3.92586e-301 1.50034e-298 5.50319e-296 1.93808e-293 6.55548e-291 2.13032e-288 6.65286e-286 1.99707e-283 5.76346e-281 1.59939e-278 4.26835e-276 1.09559e-273 2.70491e-271 6.42377e-269 1.46746e-266 3.22463e-264 6.81565e-262 1.38554e-259 2.70875e-257 5.09216e-255 9.20332e-253 1.59887e-250 2.66935e-248 4.28166e-246 6.59633e-244 9.75732e-242 1.38527e-239 1.88686e-237 2.46458e-235 3.08555e-233 3.70056e-231 4.24903e-229 4.66783e-227 4.9027e-225 4.91941e-223 4.71174e-221 4.3037e-219 3.74505e-217 3.10139e-215 2.44128e-213 1.82421e-211 1.29214e-209 8.66246e-208 5.4868e-206 3.27731e-204 1.84214e-202 9.72123e-201 4.80372e-199 2.21628e-197 9.5155e-196 3.78771e-194 1.3919e-192 4.69887e-191 1.44896e-189 4.05402e-188 1.02098e-186 2.29226e-185 4.53387e-184 7.78293e-183 1.1373e-181 1.37836e-180 1.3356e-179 9.79105e-179 4.95534e-178 1.45328e-177 1.65764e-177 1.49852e-177 1.17635e-177 8.48536e-178 9.76981e-178 9.55148e-178 6.46476e-178 7.86051e-178 5.42386e-178 2.84434e-178 3.26172e-178 5.48946e-178 4.04787e-178 4.57787e-178 1.11868e-177 1.50732e-177 1.65804e-177 1.44804e-177 1.5324e-177 1.52443e-177 1.28767e-177 9.87056e-178 9.14984e-178 1.1274e-177 1.27066e-177 6.61843e-178 7.14047e-178 1.0265e-177 1.42502e-177 1.35574e-177 1.62155e-177 1.4068e-177 1.16715e-177 1.254e-177 1.47514e-177 1.12447e-177 1.57394e-177 1.91874e-177 1.84527e-177 1.57127e-177 8.53268e-178 9.50248e-178 1.11573e-177 1.16277e-177 9.88208e-178 7.22566e-178 7.5851e-178 1.21918e-177 9.35966e-178 6.53637e-178 8.43849e-178 5.05351e-178 3.39695e-178 3.80675e-178 4.87498e-178 9.39507e-178 1.39097e-177 1.1192e-177 9.19043e-178 8.75471e-178 1.13973e-177 8.44069e-178 6.92197e-178 1.05432e-177 9.55821e-178 1.03888e-177 5.933e-178 6.49451e-178 7.00209e-178 6.81089e-178 1.29055e-177 1.4623e-177 1.13152e-177 1.19014e-177 1.33006e-177 1.29136e-177 8.74448e-178 8.84282e-178 5.13925e-178 5.52896e-178 6.625e-178 7.60562e-178 9.37685e-178 9.62877e-178 1.10577e-177 1.29071e-177 1.82003e-177 1.97742e-177 1.79793e-177 1.92779e-177 1.73668e-177 1.21634e-177 1.13709e-177 1.07444e-177 1.48166e-177 1.48424e-177 1.11816e-177 6.22714e-178 6.59152e-178 4.84469e-178 1.55729e-178 2.99245e-179 4.0175e-180 4.10414e-181 3.36285e-182 2.28983e-183 1.32897e-184 6.70011e-186 2.97773e-187 1.18034e-188 4.21297e-190 1.36476e-191 4.03922e-193 1.09842e-194 2.75797e-196 6.42093e-198 1.39126e-199 2.81478e-201 5.33298e-203 9.48661e-205 1.58811e-206 2.5072e-208 3.7399e-210 5.28008e-212 7.06658e-214 8.97809e-216 1.08425e-217 1.24614e-219 1.36448e-221 1.42483e-223 1.42021e-225 1.35241e-227 1.23128e-229 1.07255e-231 8.94466e-234 7.14596e-236 5.47196e-238 4.01817e-240 2.83082e-242 1.91415e-244 1.24273e-246 7.74934e-249 4.64263e-251 2.67294e-253 1.47925e-255 7.87051e-258 4.02667e-260 1.9812e-262 9.37552e-265 4.26754e-267 1.8685e-269 7.86953e-272 3.18814e-274 1.24233e-276 0 
0 0 0 0 0 0 0 0 0 0 0 0 0 0 0 0 0 0 0 0 0 0 0 0 0 0 0 2.51973e-322 1.37923e-319 7.22635e-317 3.62058e-314 1.73586e-311 7.96928e-309 3.50552e-306 1.47828e-303 5.9793e-301 2.3208e-298 8.6477e-296 3.0946e-293 1.0639e-290 3.51495e-288 1.1163e-285 3.40868e-283 1.00099e-280 2.82738e-278 7.68272e-276 2.0085e-273 5.05232e-271 1.22292e-268 2.84845e-266 6.38437e-264 1.37695e-261 2.85747e-259 5.70522e-257 1.09583e-254 2.02454e-252 3.59708e-250 6.14504e-248 1.00913e-245 1.59256e-243 2.41459e-241 3.51592e-239 4.91494e-237 6.59322e-235 8.48357e-233 1.0465e-230 1.23692e-228 1.39999e-226 1.51634e-224 1.57055e-222 1.55435e-220 1.46864e-218 1.3236e-216 1.13666e-214 9.29097e-213 7.21987e-211 5.3268e-209 3.72606e-207 2.46716e-205 1.54369e-203 9.10979e-202 5.05974e-200 2.63877e-198 1.28883e-196 5.87814e-195 2.49518e-193 9.82113e-192 3.56914e-190 1.19173e-188 3.63516e-187 1.00621e-185 2.50735e-184 5.57072e-183 1.0905e-181 1.85296e-180 2.68058e-179 3.21681e-178 3.08707e-177 2.24207e-176 1.1249e-175 3.276e-175 3.74108e-175 3.38319e-175 2.65662e-175 1.92036e-175 2.20466e-175 2.1542e-175 1.46412e-175 1.77134e-175 1.2246e-175 6.45228e-176 7.38275e-176 1.23605e-175 9.15979e-176 1.03974e-175 2.52394e-175 3.40239e-175 3.74179e-175 3.27336e-175 3.46021e-175 3.4409e-175 2.90741e-175 2.23097e-175 2.06881e-175 2.54554e-175 2.8631e-175 1.50138e-175 1.61506e-175 2.31914e-175 3.21428e-175 3.06527e-175 3.65821e-175 3.17715e-175 2.63891e-175 2.83335e-175 3.32667e-175 2.54752e-175 3.55444e-175 4.33079e-175 4.16686e-175 3.54553e-175 1.93527e-175 2.14669e-175 2.51845e-175 2.62359e-175 2.23052e-175 1.63443e-175 1.71691e-175 2.7465e-175 2.11378e-175 1.48064e-175 1.90055e-175 1.14273e-175 7.68846e-176 8.5992e-176 1.10398e-175 2.1218e-175 3.13497e-175 2.52821e-175 2.07677e-175 1.97991e-175 2.56856e-175 1.90739e-175 1.56805e-175 2.37679e-175 2.16037e-175 2.34121e-175 1.3447e-175 1.46631e-175 1.58034e-175 1.54426e-175 2.91088e-175 3.29809e-175 2.55911e-175 2.68844e-175 3.00226e-175 2.9131e-175 1.97889e-175 1.99339e-175 1.16457e-175 1.24911e-175 1.4957e-175 1.718e-175 2.11587e-175 2.17528e-175 2.49743e-175 2.91843e-175 4.10799e-175 4.46418e-175 4.06441e-175 4.35193e-175 3.91993e-175 2.75134e-175 2.56812e-175 2.43098e-175 3.34276e-175 3.34894e-175 2.52408e-175 1.41128e-175 1.48624e-175 1.09231e-175 3.53533e-176 6.85185e-177 9.28424e-178 9.5759e-179 7.92386e-180 5.44987e-181 3.19537e-182 1.62769e-183 7.31006e-185 2.92851e-186 1.05654e-187 3.45996e-189 1.03534e-190 2.84697e-192 7.22919e-194 1.70233e-195 3.73128e-197 7.63761e-199 1.46422e-200 2.63595e-202 4.4664e-204 7.13813e-206 1.07805e-207 1.54125e-209 2.08913e-211 2.68866e-213 3.28966e-215 3.83117e-217 4.2516e-219 4.50039e-221 4.54805e-223 4.39184e-225 4.05557e-227 3.58388e-229 3.03274e-231 2.45901e-233 1.91148e-235 1.42521e-237 1.01975e-239 7.00471e-242 4.62101e-244 2.92874e-246 1.78384e-248 1.04442e-250 5.8796e-253 3.18316e-255 1.65762e-257 8.30404e-260 4.00241e-262 1.85617e-264 8.28328e-267 3.55704e-269 1.46985e-271 5.84443e-274 0 
0 0 0 0 0 0 0 0 0 0 0 0 0 0 0 0 0 0 0 0 0 0 0 0 0 0 3.31024e-322 1.85151e-319 9.83578e-317 4.99737e-314 2.43018e-311 1.13186e-308 5.052e-306 2.16222e-303 8.8782e-301 3.49899e-298 1.32415e-295 4.81372e-293 1.6816e-290 5.64681e-288 1.82323e-285 5.66169e-283 1.69127e-280 4.86093e-278 1.34442e-275 3.57862e-273 9.16858e-271 2.26113e-268 5.36792e-266 1.22672e-263 2.69863e-261 5.71451e-259 1.16472e-256 2.28472e-254 4.31275e-252 7.83286e-250 1.36852e-247 2.2996e-245 3.7155e-243 5.77066e-241 8.61271e-239 1.23483e-236 1.70005e-234 2.24656e-232 2.84821e-230 3.46259e-228 4.03425e-226 4.50185e-224 4.80838e-222 4.91214e-220 4.79586e-218 4.47111e-216 3.9766e-214 3.37069e-212 2.71992e-210 2.0869e-208 1.52051e-206 1.05048e-204 6.871e-203 4.24747e-201 2.47681e-199 1.35952e-197 7.00804e-196 3.38366e-194 1.52576e-192 6.40414e-191 2.49281e-189 8.96017e-188 2.95944e-186 8.93079e-185 2.44594e-183 6.03134e-182 1.3262e-180 2.56966e-179 4.32246e-178 6.19118e-177 7.35738e-176 6.99349e-175 5.03257e-174 2.50333e-173 7.24011e-173 8.27753e-173 7.48837e-173 5.88198e-173 4.26068e-173 4.87747e-173 4.76325e-173 3.25066e-173 3.91344e-173 2.71066e-173 1.43489e-173 1.63822e-173 2.72867e-173 2.03206e-173 2.31495e-173 5.58286e-173 7.52937e-173 8.27875e-173 7.25436e-173 7.66002e-173 7.61436e-173 6.4358e-173 4.94356e-173 4.58584e-173 5.63477e-173 6.32487e-173 3.33882e-173 3.58137e-173 5.13673e-173 7.10807e-173 6.79436e-173 8.09113e-173 7.03459e-173 5.84943e-173 6.27621e-173 7.35516e-173 5.65802e-173 7.86965e-173 9.58337e-173 9.22473e-173 7.84365e-173 4.303e-173 4.75447e-173 5.57322e-173 5.80357e-173 4.93581e-173 3.62447e-173 3.80992e-173 6.06592e-173 4.68007e-173 3.28801e-173 4.19662e-173 2.53323e-173 1.70599e-173 1.90442e-173 2.45093e-173 4.69786e-173 6.92714e-173 5.599e-173 4.60081e-173 4.38969e-173 5.67519e-173 4.22565e-173 3.48231e-173 5.2531e-173 4.78702e-173 5.17276e-173 2.98776e-173 3.24565e-173 3.49683e-173 3.43245e-173 6.43689e-173 7.29272e-173 5.67413e-173 5.95384e-173 6.64389e-173 6.44267e-173 4.39027e-173 4.40555e-173 2.58705e-173 2.76665e-173 3.31055e-173 3.80454e-173 4.6808e-173 4.81784e-173 5.5299e-173 6.46935e-173 9.09037e-173 9.8806e-173 9.00772e-173 9.6317e-173 8.67436e-173 6.10132e-173 5.68637e-173 5.39218e-173 7.39372e-173 7.40811e-173 5.58599e-173 3.13553e-173 3.28543e-173 2.41448e-173 7.86771e-174 1.53781e-174 2.10285e-175 2.18959e-176 1.82957e-177 1.27088e-178 7.5269e-180 3.87352e-181 1.75773e-182 7.11592e-184 2.59466e-185 8.58871e-187 2.59812e-188 7.2233e-190 1.8547e-191 4.41687e-193 9.79209e-195 2.02759e-196 3.93274e-198 7.16393e-200 1.22846e-201 1.9872e-203 3.03819e-205 4.39778e-207 6.03641e-209 7.86815e-211 9.75179e-213 1.15063e-214 1.2939e-216 1.3881e-218 1.42199e-220 1.3922e-222 1.3037e-224 1.16851e-226 1.00313e-228 8.25311e-231 6.51111e-233 4.92824e-235 3.58039e-237 2.4978e-239 1.67393e-241 1.07802e-243 6.67357e-246 3.97241e-248 2.27416e-250 1.25243e-252 6.63634e-255 3.38389e-257 1.66062e-259 7.84389e-262 3.56641e-264 1.56094e-266 6.57661e-269 2.66727e-271 0 
0 0 0 0 0 0 0 0 0 0 0 0 0 0 0 0 0 0 0 0 0 0 0 0 0 4.29837e-322 2.4269e-319 1.30694e-316 6.73251e-314 3.32008e-311 1.56841e-308 7.102e-306 3.0843e-303 1.28533e-300 5.14236e-298 1.97601e-295 7.29565e-293 2.58908e-290 8.83431e-288 2.89916e-285 9.1528e-283 2.78047e-280 8.12919e-278 2.28779e-275 6.19842e-273 1.61693e-270 4.06147e-268 9.82377e-266 2.28818e-263 5.13237e-261 1.10854e-258 2.30551e-256 4.61666e-254 8.9e-252 1.65155e-249 2.94962e-247 5.06901e-245 8.38048e-243 1.33257e-240 2.03735e-238 2.99401e-236 4.22764e-234 5.73361e-232 7.46547e-230 9.32777e-228 1.1178e-225 1.28403e-223 1.41298e-221 1.48854e-219 1.50015e-217 1.44514e-215 1.32958e-213 1.1672e-211 9.76689e-210 7.78165e-208 5.89612e-206 4.24295e-204 2.89569e-202 1.87125e-200 1.14302e-198 6.58704e-197 3.57372e-195 1.82106e-193 8.69299e-192 3.87596e-190 1.60887e-188 6.19403e-187 2.20231e-185 7.19619e-184 2.14866e-182 5.82321e-181 1.42109e-179 3.09287e-178 5.9324e-177 9.87974e-176 1.40124e-174 1.64915e-173 1.55283e-172 1.10727e-171 5.46123e-171 1.56875e-170 1.79558e-170 1.62498e-170 1.27679e-170 9.26747e-171 1.05791e-170 1.03258e-170 7.07526e-171 8.47661e-171 5.88237e-171 3.12825e-171 3.56379e-171 5.90575e-171 4.41956e-171 5.05273e-171 1.21071e-170 1.63355e-170 1.79578e-170 1.57615e-170 1.66249e-170 1.65195e-170 1.39668e-170 1.07394e-170 9.96578e-171 1.22284e-170 1.36986e-170 7.2789e-171 7.78593e-171 1.11543e-170 1.54108e-170 1.47645e-170 1.7545e-170 1.527e-170 1.27115e-170 1.36298e-170 1.59435e-170 1.23195e-170 1.70822e-170 2.07909e-170 2.00216e-170 1.70123e-170 9.37942e-171 1.03238e-170 1.20914e-170 1.25862e-170 1.07081e-170 7.87983e-171 8.2883e-171 1.31347e-170 1.01588e-170 7.15807e-171 9.08514e-171 5.50546e-171 3.71108e-171 4.13495e-171 5.33437e-171 1.01975e-170 1.50065e-170 1.21563e-170 9.99263e-171 9.54136e-171 1.22936e-170 9.17787e-171 7.58149e-171 1.13828e-170 1.0399e-170 1.1205e-170 6.50787e-171 7.0434e-171 7.58586e-171 7.4793e-171 1.39551e-170 1.58096e-170 1.23339e-170 1.29269e-170 1.44144e-170 1.39695e-170 9.54867e-171 9.54598e-171 5.63404e-171 6.00773e-171 7.18378e-171 8.2599e-171 1.0152e-170 1.04613e-170 1.20045e-170 1.40593e-170 1.97214e-170 2.14402e-170 1.95716e-170 2.08991e-170 1.88192e-170 1.32646e-170 1.23441e-170 1.17256e-170 1.60334e-170 1.6066e-170 1.21199e-170 6.8294e-171 7.12037e-171 5.23241e-171 1.71643e-171 3.38311e-172 4.66815e-173 4.90659e-174 4.1395e-175 2.9038e-176 1.73704e-177 9.03008e-179 4.13987e-180 1.69345e-181 6.23994e-183 2.08757e-184 6.38325e-186 1.79407e-187 4.65752e-189 1.12158e-190 2.51467e-192 5.26664e-194 1.03337e-195 1.90448e-197 3.30457e-199 5.40983e-201 8.37165e-203 1.22673e-204 1.70482e-206 2.25023e-208 2.82464e-210 3.37605e-212 3.84631e-214 4.18129e-216 4.34121e-218 4.30842e-220 4.0905e-222 3.71792e-224 3.23728e-226 2.70199e-228 2.163e-230 1.66158e-232 1.22542e-234 8.68038e-237 5.90812e-239 3.86521e-241 2.43136e-243 1.47097e-245 8.56139e-248 4.79481e-250 2.58445e-252 1.34093e-254 6.69794e-257 3.22126e-259 1.49173e-261 6.65212e-264 2.85658e-266 1.18125e-268 0 
0 0 0 0 0 0 0 0 0 0 0 0 0 0 0 0 0 0 0 0 0 0 0 0 5.38532e-322 3.10649e-319 1.69547e-316 8.85365e-314 4.42673e-311 2.12065e-308 9.73977e-306 4.29115e-303 1.81456e-300 7.36805e-298 2.87414e-295 1.07749e-292 3.88354e-290 1.34615e-287 4.4889e-285 1.4404e-282 4.44861e-280 1.32267e-277 3.78654e-275 1.0439e-272 2.77177e-270 7.08878e-268 1.74636e-265 4.1444e-263 9.47459e-261 2.08653e-258 4.42626e-256 9.04421e-254 1.77986e-251 3.37309e-249 6.15513e-247 1.08128e-244 1.82826e-242 2.97469e-240 4.65619e-238 7.00936e-236 1.01448e-233 1.41111e-231 1.88567e-229 2.4197e-227 2.98016e-225 3.52107e-223 3.98857e-221 4.3291e-219 4.49906e-217 4.47376e-215 4.25309e-213 3.86227e-211 3.34717e-209 2.76547e-207 2.17586e-205 1.62833e-203 1.15751e-201 7.80473e-200 4.98367e-198 3.00848e-196 1.71363e-194 9.19055e-193 4.6302e-191 2.18551e-189 9.63673e-188 3.95634e-186 1.50668e-184 5.29974e-183 1.71341e-181 5.06246e-180 1.35782e-178 3.27976e-177 7.06599e-176 1.3418e-174 2.21263e-173 3.10772e-172 3.62269e-171 3.37934e-170 2.38804e-169 1.16795e-168 3.33248e-168 3.81857e-168 3.45702e-168 2.71711e-168 1.97617e-168 2.24956e-168 2.19453e-168 1.50967e-168 1.80006e-168 1.25147e-168 6.68581e-169 7.60031e-169 1.25315e-168 9.42343e-169 1.0811e-168 2.57408e-168 3.47455e-168 3.81889e-168 3.35726e-168 3.53738e-168 3.5136e-168 2.97158e-168 2.28723e-168 2.1232e-168 2.60168e-168 2.90876e-168 1.55563e-168 1.65946e-168 2.3746e-168 3.27566e-168 3.1454e-168 3.72991e-168 3.24961e-168 2.70814e-168 2.90184e-168 3.38827e-168 2.62964e-168 3.6352e-168 4.42205e-168 4.26027e-168 3.61752e-168 2.00424e-168 2.19772e-168 2.57181e-168 2.67599e-168 2.27749e-168 1.67948e-168 1.76763e-168 2.78836e-168 2.16183e-168 1.52767e-168 1.92827e-168 1.17298e-168 7.91421e-169 8.80188e-169 1.13819e-168 2.17008e-168 3.18717e-168 2.58751e-168 2.12773e-168 2.03315e-168 2.61082e-168 1.95425e-168 1.61813e-168 2.41817e-168 2.2146e-168 2.37962e-168 1.38963e-168 1.49851e-168 1.61337e-168 1.59766e-168 2.96612e-168 3.36008e-168 2.62837e-168 2.75158e-168 3.06594e-168 2.96956e-168 2.03597e-168 2.0279e-168 1.20283e-168 1.27897e-168 1.52826e-168 1.75806e-168 2.15863e-168 2.22692e-168 2.55484e-168 2.9954e-168 4.19461e-168 4.56112e-168 4.16897e-168 4.44578e-168 4.00278e-168 2.82716e-168 2.62714e-168 2.4997e-168 3.40866e-168 3.41588e-168 2.57806e-168 1.45822e-168 1.5129e-168 1.11166e-168 3.67079e-169 7.2953e-170 1.01567e-170 1.07752e-171 9.17769e-173 6.50088e-174 3.92736e-175 2.06219e-176 9.55053e-178 3.94702e-179 1.46957e-180 4.9684e-182 1.53544e-183 4.36217e-185 1.14483e-186 2.78739e-188 6.31951e-190 1.33853e-191 2.65643e-193 4.95253e-195 8.69425e-197 1.44022e-198 2.25552e-200 3.34533e-202 4.7064e-204 6.2896e-206 7.99491e-208 9.67797e-210 1.1169e-211 1.23013e-213 1.29419e-215 1.30175e-217 1.25282e-219 1.15451e-221 1.0194e-223 8.62986e-226 7.00841e-228 5.46287e-230 4.08898e-232 2.94031e-234 2.03203e-236 1.35015e-238 8.62768e-241 5.30386e-243 3.13756e-245 1.78646e-247 9.7923e-250 5.16824e-252 2.62681e-254 1.28587e-256 6.06294e-259 2.75371e-261 1.20481e-263 5.07788e-266 0 
0 0 0 0 0 0 0 0 0 0 0 0 0 0 0 0 0 0 0 0 0 0 0 6.71929e-322 3.88311e-319 2.14759e-316 1.13661e-313 5.76077e-311 2.79805e-308 1.3032e-305 5.82364e-303 2.49828e-300 1.02935e-297 4.07521e-295 1.55091e-292 5.67583e-290 1.99815e-287 6.76883e-285 2.20701e-282 6.92798e-280 2.09417e-277 6.09678e-275 1.70978e-272 4.61943e-270 1.20251e-267 3.0163e-265 7.29071e-263 1.69818e-260 3.8117e-258 8.24447e-256 1.71828e-253 3.45048e-251 6.67536e-249 1.24401e-246 2.23285e-244 3.85926e-242 6.42189e-240 1.02857e-237 1.58524e-235 2.35027e-233 3.35086e-231 4.59251e-229 6.04812e-227 7.65022e-225 9.28967e-223 1.08235e-220 1.20929e-218 1.29482e-216 1.32774e-214 1.30293e-212 1.2226e-210 1.09604e-208 9.37864e-207 7.65204e-205 5.94643e-203 4.39591e-201 3.08732e-199 2.05695e-197 1.29804e-195 7.74498e-194 4.36098e-192 2.31239e-190 1.15194e-188 5.37709e-187 2.345e-185 9.52318e-184 3.58787e-182 1.24868e-180 3.99474e-179 1.16808e-177 3.10089e-176 7.41432e-175 1.5814e-173 2.97336e-172 4.8553e-171 6.754e-170 7.79892e-169 7.20796e-168 5.04826e-167 2.44858e-166 6.94022e-166 7.96129e-166 7.21011e-166 5.66868e-166 4.13102e-166 4.68958e-166 4.57246e-166 3.15781e-166 3.74753e-166 2.61018e-166 1.40078e-166 1.58899e-166 2.60691e-166 1.96978e-166 2.26756e-166 5.36532e-166 7.24519e-166 7.9618e-166 7.01055e-166 7.37891e-166 7.32648e-166 6.19813e-166 4.77553e-166 4.43455e-166 5.42653e-166 6.05526e-166 3.25913e-166 3.46743e-166 4.95588e-166 6.82596e-166 6.56912e-166 7.77379e-166 6.77965e-166 5.65621e-166 6.05672e-166 7.05939e-166 5.50259e-166 7.58407e-166 9.22069e-166 8.88714e-166 7.54139e-166 4.19843e-166 4.58666e-166 5.36274e-166 5.57775e-166 4.74883e-166 3.50924e-166 3.69563e-166 5.80321e-166 4.51008e-166 3.19615e-166 4.01235e-166 2.44998e-166 1.65458e-166 1.83683e-166 2.38074e-166 4.5273e-166 6.63622e-166 5.39935e-166 4.44158e-166 4.24718e-166 5.43584e-166 4.0794e-166 3.38563e-166 5.03638e-166 4.62356e-166 4.95446e-166 2.90882e-166 3.12552e-166 3.36399e-166 3.34555e-166 6.18066e-166 7.00112e-166 5.49094e-166 5.7419e-166 6.39316e-166 6.18864e-166 4.25569e-166 4.22344e-166 2.51741e-166 2.66929e-166 3.18734e-166 3.66837e-166 4.49976e-166 4.64733e-166 5.33052e-166 6.25641e-166 8.74649e-166 9.51267e-166 8.70588e-166 9.27167e-166 8.34664e-166 5.90721e-166 5.48147e-166 5.22414e-166 7.10446e-166 7.12006e-166 5.3762e-166 3.05229e-166 3.15145e-166 2.31542e-166 7.69554e-167 1.54197e-167 2.16585e-168 2.31897e-169 1.99389e-170 1.42599e-171 8.69934e-173 4.61336e-174 2.15811e-175 9.01004e-177 3.38931e-178 1.15785e-179 3.61609e-181 1.03831e-182 2.7545e-184 6.77991e-186 1.55414e-187 3.32868e-189 6.6809e-191 1.25984e-192 2.23732e-194 3.74966e-196 5.94209e-198 8.91912e-200 1.27007e-201 1.71823e-203 2.21135e-205 2.71071e-207 3.1684e-209 3.53486e-211 3.7678e-213 3.84029e-215 3.74583e-217 3.49913e-219 3.13251e-221 2.68918e-223 2.21509e-225 1.7516e-227 1.33035e-229 9.70896e-232 6.81139e-234 4.59531e-236 2.98232e-238 1.86247e-240 1.11952e-242 6.47876e-245 3.61043e-247 1.93781e-249 1.00189e-251 4.9904e-254 2.395e-256 1.10755e-258 4.93548e-261 2.11937e-263 0 
0 0 0 0 0 0 0 0 0 0 0 0 0 0 0 0 0 0 0 0 0 0 8.05327e-322 4.74036e-319 2.65621e-316 1.42454e-313 7.31769e-311 3.60294e-308 1.70138e-305 7.7101e-303 3.35479e-300 1.40228e-297 5.63331e-295 2.17587e-292 8.08362e-290 2.88958e-287 9.94151e-285 3.29293e-282 1.05034e-279 3.22699e-277 9.55133e-275 2.72397e-272 7.48639e-270 1.98301e-267 5.06286e-265 1.24599e-262 2.95594e-260 6.76e-258 1.49026e-255 3.16682e-253 6.48644e-251 1.28048e-248 2.43598e-246 4.46531e-244 7.88554e-242 1.34132e-239 2.19714e-237 3.46497e-235 5.25942e-233 7.68134e-231 1.07907e-228 1.4575e-226 1.89207e-224 2.3596e-222 2.82551e-220 3.24701e-218 3.57884e-216 3.78095e-214 3.82614e-212 3.70596e-210 3.43297e-208 3.03872e-206 2.56774e-204 2.06921e-202 1.58842e-200 1.16012e-198 8.05096e-197 5.30107e-195 3.30645e-193 1.95023e-191 1.08568e-189 5.69229e-188 2.80426e-186 1.29466e-184 5.58503e-183 2.24383e-181 8.36415e-180 2.88048e-178 9.11975e-177 2.63935e-175 6.93574e-174 1.64176e-172 3.46706e-171 6.45511e-170 1.04391e-168 1.43834e-167 1.64536e-166 1.50681e-165 1.04604e-164 5.03211e-164 1.41698e-163 1.6272e-163 1.4742e-163 1.1594e-163 8.46553e-164 9.58398e-164 9.3398e-164 6.47502e-164 7.64866e-164 5.33697e-164 2.87699e-164 3.25666e-164 5.31662e-164 4.03642e-164 4.66223e-164 1.09635e-163 1.48107e-163 1.62729e-163 1.43512e-163 1.50896e-163 1.49766e-163 1.26739e-163 9.77471e-164 9.07984e-164 1.10959e-163 1.23579e-163 6.69341e-164 7.10274e-164 1.01397e-163 1.39447e-163 1.34495e-163 1.58836e-163 1.38663e-163 1.15811e-163 1.23929e-163 1.44192e-163 1.12875e-163 1.55116e-163 1.88487e-163 1.81745e-163 1.54126e-163 8.62137e-164 9.38422e-164 1.09625e-163 1.13975e-163 9.70715e-164 7.18817e-164 7.57431e-164 1.18406e-163 9.22398e-164 6.55507e-164 8.18496e-164 5.01642e-164 3.39105e-164 3.75786e-164 4.88171e-164 9.25924e-164 1.35462e-163 1.10451e-163 9.08933e-164 8.69755e-164 1.10953e-163 8.34804e-164 6.94418e-164 1.02833e-163 9.46283e-164 1.01128e-163 5.96877e-164 6.39092e-164 6.87633e-164 6.86753e-164 1.26259e-163 1.43009e-163 1.12454e-163 1.17464e-163 1.3069e-163 1.26438e-163 8.72023e-164 8.62332e-164 5.16482e-164 5.46144e-164 6.51676e-164 7.50378e-164 9.19554e-164 9.50765e-164 1.09032e-163 1.28104e-163 1.78795e-163 1.94497e-163 1.78225e-163 1.8956e-163 1.70624e-163 1.20999e-163 1.12122e-163 1.0703e-163 1.45164e-163 1.45492e-163 1.09909e-163 6.26296e-164 6.43562e-164 4.72782e-164 1.58145e-164 3.19454e-165 4.52648e-166 4.89082e-167 4.24467e-168 3.06473e-169 1.88783e-170 1.011e-171 4.77662e-173 2.01437e-174 7.65495e-176 2.64212e-177 8.33795e-179 2.41947e-180 6.48719e-182 1.61404e-183 3.74033e-185 8.09978e-187 1.64389e-188 3.13507e-190 5.63133e-192 9.5474e-194 1.53074e-195 2.32494e-197 3.3505e-199 4.58795e-201 5.97745e-203 7.41871e-205 8.78092e-207 9.92196e-209 1.0713e-210 1.10626e-212 1.09342e-214 1.03519e-216 9.39416e-219 8.17654e-221 6.82982e-223 5.47784e-225 4.22068e-227 3.12555e-229 2.22545e-231 1.52413e-233 1.00436e-235 6.37019e-238 3.88984e-240 2.28737e-242 1.29557e-244 7.06951e-247 3.71699e-249 1.88334e-251 9.19706e-254 4.32902e-256 1.96416e-258 8.59056e-261 0 
0 0 0 0 0 0 0 0 0 0 0 0 0 0 0 0 0 0 0 0 0 9.53547e-322 5.65196e-319 3.20814e-316 1.74318e-313 9.07389e-311 4.528e-308 2.1675e-305 9.95879e-303 4.39427e-300 1.86301e-297 7.59263e-295 2.97578e-292 1.12204e-289 4.07161e-287 1.42237e-284 4.78494e-282 1.55047e-279 4.84037e-277 1.45615e-274 4.22202e-272 1.18002e-269 3.17953e-267 8.26013e-265 2.06914e-262 4.998e-260 1.16416e-257 2.61483e-255 5.66339e-253 1.18274e-250 2.38152e-248 4.62304e-246 8.6508e-244 1.56019e-241 2.71153e-239 4.54026e-237 7.32283e-235 1.13736e-232 1.70063e-230 2.44728e-228 3.38814e-226 4.51106e-224 5.7737e-222 7.1005e-220 8.38621e-218 9.50716e-216 1.03392e-213 1.07796e-211 1.0767e-209 1.02953e-207 9.41643e-206 8.23102e-204 6.86956e-202 5.46845e-200 4.14736e-198 2.99311e-196 2.05276e-194 1.33594e-192 8.23718e-191 4.80345e-189 2.64409e-187 1.37096e-185 6.67997e-184 3.0506e-182 1.3019e-180 5.1751e-179 1.90888e-177 6.50577e-176 2.03866e-174 5.84029e-173 1.51935e-171 3.56081e-170 7.44609e-169 1.37293e-167 2.19909e-166 3.00149e-165 3.40175e-164 3.08716e-163 2.12446e-162 1.01373e-161 2.83613e-161 3.26035e-161 2.95486e-161 2.32461e-161 1.7006e-161 1.9201e-161 1.87022e-161 1.30148e-161 1.53037e-161 1.06974e-161 5.79229e-162 6.54296e-162 1.06296e-161 8.10835e-162 9.39632e-162 2.19621e-161 2.96801e-161 3.2605e-161 2.87995e-161 3.02502e-161 3.00122e-161 2.54051e-161 1.96131e-161 1.82249e-161 2.22415e-161 2.47246e-161 1.34751e-161 1.42629e-161 2.0337e-161 2.79272e-161 2.69935e-161 3.1815e-161 2.78019e-161 2.32452e-161 2.48583e-161 2.88728e-161 2.26972e-161 3.11012e-161 3.77719e-161 3.64357e-161 3.08797e-161 1.73543e-161 1.88221e-161 2.19681e-161 2.28308e-161 1.94518e-161 1.44338e-161 1.52176e-161 2.36836e-161 1.84933e-161 1.31786e-161 1.63685e-161 1.00688e-161 6.8129e-162 7.53667e-162 9.81249e-162 1.8564e-161 2.71073e-161 2.21492e-161 1.82343e-161 1.74601e-161 2.22015e-161 1.67468e-161 1.3962e-161 2.05837e-161 1.89853e-161 2.02357e-161 1.20058e-161 1.28106e-161 1.37793e-161 1.38189e-161 2.52847e-161 2.86371e-161 2.25764e-161 2.35567e-161 2.61898e-161 2.53238e-161 1.7516e-161 1.72606e-161 1.03872e-161 1.09543e-161 1.30616e-161 1.50468e-161 1.84217e-161 1.90678e-161 2.18625e-161 2.57135e-161 3.583e-161 3.89844e-161 3.57671e-161 3.79929e-161 3.41931e-161 2.42962e-161 2.24829e-161 2.14957e-161 2.90772e-161 2.91448e-161 2.20272e-161 1.25972e-161 1.28836e-161 9.46362e-162 3.18567e-162 6.48675e-163 9.2713e-164 1.01083e-164 8.85429e-166 6.4535e-167 4.01349e-168 2.17034e-169 1.03554e-170 4.41069e-172 1.69309e-173 5.90357e-175 1.88232e-176 5.51921e-178 1.4955e-179 3.76071e-181 8.80933e-183 1.92857e-184 3.9575e-186 7.63191e-188 1.38641e-189 2.37748e-191 3.85605e-193 5.92548e-195 8.64073e-197 1.19743e-198 1.57908e-200 1.98398e-202 2.37759e-204 2.7205e-206 2.97501e-208 3.11195e-210 3.11625e-212 2.9896e-214 2.74962e-216 2.42599e-218 2.05453e-220 1.67102e-222 1.3059e-224 9.81065e-227 7.08803e-229 4.92675e-231 3.29574e-233 2.12247e-235 1.31629e-237 7.86304e-240 4.52543e-242 2.50984e-244 1.3416e-246 6.91284e-249 3.43398e-251 1.6447e-253 7.59555e-256 3.3824e-258 0 
0 0 0 0 0 0 0 0 0 0 0 0 0 0 0 0 0 0 0 0 1.09683e-321 6.58199e-319 3.78395e-316 2.08276e-313 1.09841e-310 5.55432e-308 2.69471e-305 1.25507e-302 5.61485e-300 2.41402e-297 9.97878e-295 3.96766e-292 1.51803e-289 5.59078e-287 1.98267e-284 6.7724e-282 2.22876e-279 7.06831e-277 2.16068e-274 6.36746e-272 1.80931e-269 4.95775e-267 1.31018e-264 3.33954e-262 8.21064e-260 1.94723e-257 4.45467e-255 9.83023e-253 2.09242e-250 4.29579e-248 8.50578e-246 1.6241e-243 2.9901e-241 5.30718e-239 9.07961e-237 1.49695e-234 2.37783e-232 3.6381e-230 5.35995e-228 7.6015e-226 1.03737e-223 1.36176e-221 1.71874e-219 2.08478e-217 2.42905e-215 2.71707e-213 2.91605e-211 3.00083e-209 2.95895e-207 2.79357e-205 2.5232e-203 2.17839e-201 1.79594e-199 1.41245e-197 1.0585e-195 7.54943e-194 5.11756e-192 3.29233e-190 2.00699e-188 1.15725e-186 6.29961e-185 3.23057e-183 1.55704e-181 7.0345e-180 2.97031e-178 1.16834e-176 4.26484e-175 1.43863e-173 4.4624e-172 1.26556e-170 3.25968e-169 7.56462e-168 1.56652e-166 2.86074e-165 4.53886e-164 6.13728e-163 6.89205e-162 6.19875e-161 4.22896e-160 2.00176e-159 5.56478e-159 6.40379e-159 5.80587e-159 4.56898e-159 3.34878e-159 3.77095e-159 3.67115e-159 2.56426e-159 3.0017e-159 2.1019e-159 1.14312e-159 1.28858e-159 2.08334e-159 1.59666e-159 1.85627e-159 4.31274e-159 5.8305e-159 6.40409e-159 5.66533e-159 5.94472e-159 5.89567e-159 4.99209e-159 3.85775e-159 3.58587e-159 4.37032e-159 4.84926e-159 2.65913e-159 2.80764e-159 3.99851e-159 5.48277e-159 5.31075e-159 6.24701e-159 5.46435e-159 4.57363e-159 4.88782e-159 5.66756e-159 4.47386e-159 6.113e-159 7.42009e-159 7.16048e-159 6.06499e-159 3.42427e-159 3.70076e-159 4.31545e-159 4.48315e-159 3.82101e-159 2.8411e-159 2.99698e-159 4.64389e-159 3.6346e-159 2.59712e-159 3.20893e-159 1.98106e-159 1.34174e-159 1.48174e-159 1.9334e-159 3.6485e-159 5.31752e-159 4.35403e-159 3.58586e-159 3.43585e-159 4.35494e-159 3.29324e-159 2.75172e-159 4.03897e-159 3.73384e-159 3.9694e-159 2.36714e-159 2.51728e-159 2.70679e-159 2.72564e-159 4.96374e-159 5.62146e-159 4.44302e-159 4.63099e-159 5.14486e-159 4.97206e-159 3.44887e-159 3.38688e-159 2.04772e-159 2.15382e-159 2.56633e-159 2.9577e-159 3.61771e-159 3.74865e-159 4.29732e-159 5.05944e-159 7.03867e-159 7.6599e-159 7.03633e-159 7.4647e-159 6.71722e-159 4.78231e-159 4.41946e-159 4.2319e-159 5.70956e-159 5.72314e-159 4.32751e-159 2.48369e-159 2.52838e-159 1.85696e-159 6.29012e-160 1.29099e-160 1.86105e-161 2.04724e-162 1.80976e-163 1.33142e-164 8.35908e-166 4.5639e-167 2.19888e-168 9.45845e-170 3.66709e-171 1.29161e-172 4.16042e-174 1.23253e-175 3.37469e-177 8.57614e-179 2.03045e-180 4.49328e-182 9.32137e-184 1.81751e-185 3.33868e-187 5.79023e-189 9.49891e-191 1.47661e-192 2.17852e-194 3.05487e-196 4.07698e-198 5.18475e-200 6.28996e-202 7.28699e-204 8.06942e-206 8.54894e-208 8.67182e-210 8.42872e-212 7.8554e-214 7.02436e-216 6.03024e-218 4.97266e-220 3.94082e-222 3.00282e-224 2.2009e-226 1.55228e-228 1.05389e-230 6.88985e-233 4.33855e-235 2.63217e-237 1.53893e-239 8.67261e-242 4.71179e-244 2.46827e-246 1.24689e-248 6.07492e-251 2.85471e-253 1.29393e-255 0 