# vtk DataFile Version 3.0
Gray-Scott Simulation Output
ASCII
DATASET STRUCTURED_POINTS
DIMENSIONS 256 256 1
SPACING 1.0 1.0 1.0
ORIGIN 0 0 0
POINT_DATA 65536
SCALARS u double
LOOKUP_TABLE default
0 0 0 0 0 0 0 0 0 0 0 0 0 0 0 0 0 0 0 0 0 0 0 0 0 0 0 0 0 0 0 0 0 0 0 0 0 0 0 0 0 0 0 0 0 0 0 0 0 0 0 0 0 0 0 0 0 0 0 0 0 0 0 0 0 0 0 0 0 0 0 0 0 0 0 0 0 0 0 0 0 0 0 0 0 0 0 0 0 0 0 0 0 0 0 0 0 0 0 0 0 0 0 0 0 0 0 0 0 0 0 0 0 0 0 0 0 0 0 0 0 0 0 0 0 0 0 0 0 0 0 0 0 0 0 0 0 0 0 0 0 0 0 0 0 0 0 0 0 0 0 0 0 0 0 0 0 0 0 0 0 0 0 0 0 0 0 0 0 0 0 0 0 0 0 0 0 0 0 0 0 0 0 0 0 0 0 0 0 0 0 0 0 0 0 0 0 0 0 0 0 0 0 0 0 0 0 0 0 0 0 0 0 0 0 0 0 0 0 0 0 0 0 0 0 0 0 0 0 0 0 0 0 0 0 0 0 0 0 0 0 0 0 0 0 0 0 0 0 0 0 0 0 0 0 0 
0 1.14218e-121 9.40977e-121 7.56457e-120 6.0183e-119 4.7391e-118 3.69326e-117 2.84823e-116 2.17343e-115 1.64089e-114 1.22554e-113 9.05421e-113 6.61601e-112 4.781e-111 3.41641e-110 2.41378e-109 1.68599e-108 1.16409e-107 7.94402e-107 5.35751e-106 3.57026e-105 2.35068e-104 1.52893e-103 9.82249e-103 6.23213e-102 3.90456e-101 2.41526e-100 1.47485e-99 8.8891e-99 5.28723e-98 3.10306e-97 1.79668e-96 1.02613e-95 5.77973e-95 3.21006e-94 1.75768e-93 9.4866e-93 5.04595e-92 2.64456e-91 1.36539e-90 6.94333e-90 3.47692e-89 1.71414e-88 8.31816e-88 3.9723e-87 1.86634e-86 8.62524e-86 3.91994e-85 1.75149e-84 7.69209e-84 3.31954e-83 1.40731e-82 5.85951e-82 2.39535e-81 9.61142e-81 3.7843e-80 1.4616e-79 5.53583e-79 2.05543e-78 7.47901e-78 2.66599e-77 9.30663e-77 3.18044e-76 1.06361e-75 3.47943e-75 1.113e-74 3.47991e-74 1.06303e-73 3.17134e-73 9.23573e-73 2.62443e-72 7.27338e-72 1.96504e-71 5.17288e-71 1.3262e-70 3.30966e-70 8.03599e-70 1.89738e-69 4.35419e-69 9.70665e-69 2.10095e-68 4.4129e-68 8.99017e-68 1.77553e-67 3.39774e-67 6.29717e-67 1.12979e-66 1.96137e-66 3.29354e-66 5.34758e-66 8.393e-66 1.27305e-65 1.86587e-65 2.64242e-65 3.61604e-65 4.78257e-65 6.11556e-65 7.5646e-65 9.05798e-65 1.051e-64 1.1832e-64 1.29456e-64 1.37945e-64 1.43539e-64 1.46341e-64 1.4679e-64 1.45592e-64 1.43613e-64 1.41766e-64 1.40878e-64 1.41591e-64 1.4428e-64 1.49011e-64 1.55544e-64 1.63375e-64 1.71829e-64 1.80163e-64 1.87694e-64 1.93902e-64 1.985e-64 2.01469e-64 2.03026e-64 2.0357e-64 2.03596e-64 2.03595e-64 2.03986e-64 2.05053e-64 2.06926e-64 2.09585e-64 2.1289e-64 2.1662e-64 2.20505e-64 2.24261e-64 2.27601e-64 2.30244e-64 2.31922e-64 2.32388e-64 2.31442e-64 2.2895e-64 2.24878e-64 2.19302e-64 2.12412e-64 2.04484e-64 1.9585e-64 1.86856e-64 1.77831e-64 1.69073e-64 1.60844e-64 1.53389e-64 1.46938e-64 1.41712e-64 1.37903e-64 1.35644e-64 1.34966e-64 1.35775e-64 1.37835e-64 1.40796e-64 1.44239e-64 1.47743e-64 1.50949e-64 1.53615e-64 1.55642e-64 1.57078e-64 1.58086e-64 1.58909e-64 1.59809e-64 1.61019e-64 1.62685e-64 1.64835e-64 1.67359e-64 1.7003e-64 1.72535e-64 1.74548e-64 1.75806e-64 1.76179e-64 1.7572e-64 1.74688e-64 1.73515e-64 1.72747e-64 1.72951e-64 1.74613e-64 1.78046e-64 1.83318e-64 1.90225e-64 1.98301e-64 2.0687e-64 2.15134e-64 2.22269e-64 2.27521e-64 2.30285e-64 2.30148e-64 2.26904e-64 2.20538e-64 2.11193e-64 1.99138e-64 1.84741e-64 1.6845e-64 1.50783e-64 1.32319e-64 1.13672e-64 9.54584e-65 7.82514e-65 6.2535e-65 4.86632e-65 3.68371e-65 2.71022e-65 1.93665e-65 1.34333e-65 9.04082e-66 5.90193e-66 3.73637e-66 2.29365e-66 1.36525e-66 7.88e-67 4.41077e-67 2.3947e-67 1.26134e-67 6.44713e-68 3.1988e-68 1.54111e-68 7.21213e-69 3.27972e-69 1.44986e-69 6.23308e-70 2.60707e-70 1.06134e-70 4.20724e-71 1.62467e-71 6.11424e-72 2.24345e-72 8.02916e-73 2.80405e-73 9.55964e-74 3.18285e-74 1.03534e-74 3.29166e-75 1.02324e-75 3.11125e-76 9.25656e-77 2.69574e-77 7.68733e-78 2.14729e-78 5.8772e-79 1.57673e-79 4.14755e-80 1.07006e-80 2.70859e-81 6.72857e-82 1.64087e-82 3.92933e-83 9.24223e-84 2.13582e-84 4.85017e-85 1.08062e-85 2.26807e-86 0 
0 9.41155e-121 7.75169e-120 6.23002e-119 4.95527e-118 3.90102e-117 3.03936e-116 2.34335e-115 1.78771e-114 1.34934e-113 1.00755e-112 7.44184e-112 5.4365e-111 3.92769e-110 2.80597e-109 1.98202e-108 1.38408e-107 9.55408e-107 6.51841e-106 4.39505e-105 2.9282e-104 1.9275e-103 1.2534e-102 8.05059e-102 5.10677e-101 3.19879e-100 1.97826e-99 1.20774e-98 7.27766e-98 4.32784e-97 2.53947e-96 1.47006e-95 8.39418e-95 4.72712e-94 2.62492e-93 1.43701e-92 7.75437e-92 4.12379e-91 2.16086e-90 1.11546e-89 5.67133e-89 2.83945e-88 1.39962e-87 6.79076e-87 3.24236e-86 1.52314e-85 7.03802e-85 3.19809e-84 1.42874e-83 6.27372e-83 2.70705e-82 1.14748e-81 4.77704e-81 1.95258e-80 7.83379e-80 3.08401e-79 1.19099e-78 4.51034e-78 1.67448e-77 6.09223e-77 2.17143e-76 7.57943e-76 2.58994e-75 8.66054e-75 2.83292e-74 9.06121e-74 2.83286e-73 8.6531e-73 2.58131e-72 7.51693e-72 2.13589e-71 5.91911e-71 1.59908e-70 4.2093e-70 1.07911e-69 2.69294e-69 6.53834e-69 1.54373e-68 3.5425e-68 7.897e-68 1.70923e-67 3.59005e-67 7.31372e-67 1.44442e-66 2.76409e-66 5.12277e-66 9.19082e-66 1.59557e-65 2.67929e-65 4.35026e-65 6.82775e-65 1.03564e-64 1.51792e-64 2.14968e-64 2.9418e-64 3.8909e-64 4.97549e-64 6.15458e-64 7.36986e-64 8.55163e-64 9.62784e-64 1.05346e-63 1.12263e-63 1.16826e-63 1.19118e-63 1.19497e-63 1.18533e-63 1.16934e-63 1.15438e-63 1.14718e-63 1.15297e-63 1.17478e-63 1.21316e-63 1.26616e-63 1.32971e-63 1.39831e-63 1.46595e-63 1.52708e-63 1.57748e-63 1.61483e-63 1.63895e-63 1.65162e-63 1.65608e-63 1.65631e-63 1.65634e-63 1.65953e-63 1.66819e-63 1.68339e-63 1.70495e-63 1.73176e-63 1.762e-63 1.79351e-63 1.82396e-63 1.85104e-63 1.87248e-63 1.88608e-63 1.88987e-63 1.88219e-63 1.86198e-63 1.82894e-63 1.78371e-63 1.72781e-63 1.66347e-63 1.5934e-63 1.52039e-63 1.44711e-63 1.37599e-63 1.30916e-63 1.24859e-63 1.19618e-63 1.15371e-63 1.12275e-63 1.10438e-63 1.09887e-63 1.10544e-63 1.12219e-63 1.14626e-63 1.17426e-63 1.20276e-63 1.22884e-63 1.25053e-63 1.26703e-63 1.27871e-63 1.28691e-63 1.2936e-63 1.30091e-63 1.31073e-63 1.32425e-63 1.34169e-63 1.36218e-63 1.38386e-63 1.4042e-63 1.42055e-63 1.43078e-63 1.43382e-63 1.43012e-63 1.42176e-63 1.41226e-63 1.40603e-63 1.40769e-63 1.42117e-63 1.44901e-63 1.49176e-63 1.54778e-63 1.61327e-63 1.68277e-63 1.74979e-63 1.80765e-63 1.85023e-63 1.87263e-63 1.87149e-63 1.84513e-63 1.79343e-63 1.71753e-63 1.61961e-63 1.50265e-63 1.37027e-63 1.2267e-63 1.07661e-63 9.24993e-64 7.76872e-64 6.36912e-64 5.09051e-64 3.96177e-64 2.99931e-64 2.20692e-64 1.57716e-64 1.09408e-64 7.36398e-65 4.80767e-65 3.04385e-65 1.86866e-65 1.11235e-65 6.42067e-66 3.59411e-66 1.95141e-66 1.02789e-66 5.25413e-67 2.60698e-67 1.25603e-67 5.8782e-68 2.6732e-68 1.18177e-68 5.08075e-69 2.12516e-69 8.65191e-70 3.42982e-70 1.32451e-70 4.98486e-71 1.82914e-71 6.5467e-72 2.28644e-72 7.79546e-73 2.59563e-73 8.4438e-74 2.68472e-74 8.34627e-75 2.53796e-75 7.55152e-76 2.19938e-76 6.27243e-77 1.75223e-77 4.79638e-78 1.2869e-78 3.38553e-79 8.73559e-80 2.21144e-80 5.49423e-81 1.34002e-81 3.2093e-82 7.54963e-83 1.7449e-83 3.96301e-84 8.83084e-85 1.85372e-85 0 
0 7.5675e-120 6.23125e-119 5.00672e-118 3.98122e-117 3.13339e-116 2.44065e-115 1.88125e-114 1.43482e-113 1.08271e-112 8.08246e-112 5.96827e-111 4.35893e-110 3.14839e-109 2.24868e-108 1.58798e-107 1.10864e-106 7.65098e-106 5.21874e-105 3.51791e-104 2.34325e-103 1.5421e-102 1.00256e-101 6.43793e-101 4.08288e-100 2.55687e-99 1.58092e-98 9.64952e-98 5.8134e-97 3.45634e-96 2.02766e-95 1.17354e-94 6.69964e-94 3.77209e-93 2.09419e-92 1.14623e-91 6.18408e-91 3.28808e-90 1.72263e-89 8.8907e-89 4.51949e-88 2.26236e-87 1.11497e-86 5.40874e-86 2.58206e-85 1.21275e-84 5.60292e-84 2.54558e-83 1.13706e-82 4.99218e-82 2.15376e-81 9.12826e-81 3.79963e-80 1.55287e-79 6.22932e-79 2.45206e-78 9.46827e-78 3.58528e-77 1.3309e-76 4.84167e-76 1.72552e-75 6.0224e-75 2.05771e-74 6.88018e-74 2.25036e-73 7.19733e-73 2.24998e-72 6.87219e-72 2.04991e-71 5.96912e-71 1.696e-70 4.69981e-70 1.26962e-69 3.34192e-69 8.56716e-69 2.13787e-68 5.19051e-68 1.22547e-67 2.81211e-67 6.26868e-67 1.35678e-66 2.84973e-66 5.80547e-66 1.14654e-65 2.19405e-65 4.06629e-65 7.2954e-65 1.26652e-64 2.12676e-64 3.45316e-64 5.4198e-64 8.22091e-64 1.20494e-63 1.70646e-63 2.33531e-63 3.0888e-63 3.94991e-63 4.88611e-63 5.85115e-63 6.78971e-63 7.6446e-63 8.36516e-63 8.91509e-63 9.27828e-63 9.46132e-63 9.49238e-63 9.41687e-63 9.29071e-63 9.17249e-63 9.1156e-63 9.16137e-63 9.33399e-63 9.63778e-63 1.00573e-62 1.05604e-62 1.11036e-62 1.16392e-62 1.21233e-62 1.25225e-62 1.28185e-62 1.30097e-62 1.31103e-62 1.31459e-62 1.3148e-62 1.31484e-62 1.31738e-62 1.32425e-62 1.33628e-62 1.35334e-62 1.37455e-62 1.39848e-62 1.4234e-62 1.44749e-62 1.46892e-62 1.48587e-62 1.49664e-62 1.49963e-62 1.49356e-62 1.47757e-62 1.45142e-62 1.41562e-62 1.37136e-62 1.32043e-62 1.26494e-62 1.20712e-62 1.14907e-62 1.09272e-62 1.03976e-62 9.9176e-63 9.50206e-63 9.1653e-63 8.91977e-63 8.77406e-63 8.73032e-63 8.78241e-63 8.91525e-63 9.10627e-63 9.32846e-63 9.55461e-63 9.76161e-63 9.9338e-63 1.00648e-62 1.01576e-62 1.02227e-62 1.02757e-62 1.03336e-62 1.04113e-62 1.05183e-62 1.06564e-62 1.08186e-62 1.09903e-62 1.11515e-62 1.12811e-62 1.13622e-62 1.13864e-62 1.13573e-62 1.12913e-62 1.12161e-62 1.11669e-62 1.118e-62 1.12867e-62 1.15069e-62 1.18453e-62 1.22885e-62 1.28067e-62 1.33565e-62 1.38868e-62 1.43446e-62 1.46814e-62 1.48585e-62 1.48492e-62 1.46403e-62 1.42305e-62 1.36291e-62 1.28531e-62 1.1926e-62 1.08765e-62 9.73797e-63 8.54752e-63 7.34473e-63 6.16937e-63 5.05853e-63 4.04352e-63 3.14731e-63 2.38299e-63 1.75362e-63 1.25335e-63 8.6953e-64 5.85313e-64 3.82161e-64 2.41974e-64 1.48561e-64 8.84391e-65 5.10512e-65 2.85785e-65 1.55173e-65 8.17395e-66 4.17831e-66 2.07325e-66 9.98917e-67 4.67505e-67 2.12612e-67 9.39946e-68 4.04119e-68 1.69039e-68 6.88209e-69 2.72832e-69 1.05365e-69 3.96561e-70 1.4552e-70 5.20856e-71 1.81919e-71 6.2027e-72 2.06541e-72 6.71937e-73 2.13657e-73 6.64265e-74 2.02006e-74 6.01103e-75 1.75086e-75 4.99372e-76 1.39515e-76 3.81929e-77 1.02485e-77 2.6964e-78 6.95822e-79 1.7617e-79 4.37737e-80 1.06775e-80 2.55755e-81 6.01723e-82 1.39092e-82 3.15947e-83 7.04131e-84 1.47827e-84 0 
0 6.02183e-119 4.95724e-118 3.98202e-117 3.16558e-116 2.49079e-115 1.93962e-114 1.49467e-113 1.13969e-112 8.59783e-112 6.4167e-111 4.73705e-110 3.45884e-109 2.49766e-108 1.78347e-107 1.25915e-106 8.7886e-106 6.06374e-105 4.1351e-104 2.78678e-103 1.85582e-102 1.22104e-101 7.93644e-101 5.09525e-100 3.23064e-99 2.02272e-98 1.25038e-97 7.63031e-97 4.59593e-96 2.73192e-95 1.60235e-94 9.27192e-94 5.29219e-93 2.97906e-92 1.65358e-91 9.04896e-91 4.88111e-90 2.5948e-89 1.35917e-88 7.01356e-88 3.56463e-87 1.78407e-86 8.79098e-86 4.26381e-85 2.03515e-84 9.55727e-84 4.41477e-83 2.00546e-82 8.95663e-82 3.93179e-81 1.69604e-80 7.18733e-80 2.99132e-79 1.22236e-78 4.90291e-78 1.92971e-77 7.45044e-77 2.82089e-76 1.04704e-75 3.80864e-75 1.35723e-74 4.73655e-74 1.61822e-73 5.41028e-73 1.76946e-72 5.65883e-72 1.76891e-71 5.40249e-71 1.61142e-70 4.69203e-70 1.33307e-69 3.69395e-69 9.97853e-69 2.62648e-68 6.7329e-68 1.6801e-67 4.079e-67 9.63024e-67 2.20984e-66 4.92606e-66 1.06618e-65 2.23935e-65 4.56198e-65 9.00962e-65 1.72411e-64 3.19535e-64 5.73287e-64 9.95264e-64 1.67128e-63 2.71364e-63 4.25916e-63 6.46052e-63 9.46933e-63 1.3411e-62 1.83534e-62 2.42758e-62 3.10443e-62 3.84036e-62 4.59904e-62 5.337e-62 6.00933e-62 6.57618e-62 7.00905e-62 7.29525e-62 7.43993e-62 7.46516e-62 7.40658e-62 7.30806e-62 7.21558e-62 7.17104e-62 7.20688e-62 7.34211e-62 7.58014e-62 7.90891e-62 8.30321e-62 8.72893e-62 9.14879e-62 9.52836e-62 9.8414e-62 1.00735e-61 1.02237e-61 1.03027e-61 1.03308e-61 1.03327e-61 1.03332e-61 1.03532e-61 1.0407e-61 1.05013e-61 1.0635e-61 1.08011e-61 1.09884e-61 1.11836e-61 1.13723e-61 1.15401e-61 1.16729e-61 1.17572e-61 1.17807e-61 1.17331e-61 1.16079e-61 1.1403e-61 1.11225e-61 1.07757e-61 1.03765e-61 9.94148e-62 9.48813e-62 9.03299e-62 8.59102e-62 8.17557e-62 7.79891e-62 7.4728e-62 7.20845e-62 7.01569e-62 6.90126e-62 6.86689e-62 6.90777e-62 7.01209e-62 7.16213e-62 7.33666e-62 7.51434e-62 7.67699e-62 7.81231e-62 7.91528e-62 7.98817e-62 8.03933e-62 8.08093e-62 8.12634e-62 8.18724e-62 8.27109e-62 8.37931e-62 8.5065e-62 8.6411e-62 8.76747e-62 8.86917e-62 8.93288e-62 8.952e-62 8.9293e-62 8.87766e-62 8.81885e-62 8.78031e-62 8.79057e-62 8.8741e-62 9.04662e-62 9.31161e-62 9.65877e-62 1.00647e-61 1.04954e-61 1.09107e-61 1.12692e-61 1.1533e-61 1.16716e-61 1.16641e-61 1.15001e-61 1.11787e-61 1.07069e-61 1.00981e-61 9.37059e-62 8.5469e-62 7.65311e-62 6.71836e-62 5.77369e-62 4.85036e-62 3.97753e-62 3.17982e-62 2.47534e-62 1.87443e-62 1.37953e-62 9.86078e-63 6.84175e-63 4.60585e-63 3.00749e-63 1.9044e-63 1.16929e-63 6.96128e-64 4.01859e-64 2.24971e-64 1.22158e-64 6.43507e-65 3.28955e-65 1.6323e-65 7.86483e-66 3.68093e-66 1.67405e-66 7.40107e-67 3.18208e-67 1.33107e-67 5.41932e-68 2.14848e-68 8.29747e-69 3.12302e-69 1.14605e-69 4.10218e-70 1.43282e-70 4.88559e-71 1.62692e-71 5.29311e-72 1.68316e-72 5.23331e-73 1.59158e-73 4.73636e-74 1.37969e-74 3.9354e-75 1.09957e-75 3.0104e-76 8.0787e-77 2.12574e-77 5.48617e-78 1.38915e-78 3.45208e-79 8.42149e-80 2.01742e-80 4.74705e-81 1.09745e-81 2.4932e-82 5.55718e-83 1.16684e-83 0 
0 4.74285e-118 3.90337e-117 3.13466e-116 2.4913e-115 1.95974e-114 1.52568e-113 1.1754e-112 8.9601e-112 6.75782e-111 5.04221e-110 3.72142e-109 2.71659e-108 1.96119e-107 1.40006e-106 9.8822e-106 6.89592e-105 4.75674e-104 3.24305e-103 2.18509e-102 1.4548e-101 9.56966e-101 6.21862e-100 3.9915e-99 2.53025e-98 1.58385e-97 9.78873e-97 5.9722e-96 3.59645e-95 2.13736e-94 1.25337e-93 7.25107e-93 4.13791e-92 2.32883e-91 1.29241e-90 7.07117e-90 3.81355e-89 2.02691e-88 1.06151e-87 5.47662e-87 2.783e-86 1.39263e-85 6.86102e-85 3.3272e-84 1.58784e-83 7.4555e-83 3.44338e-82 1.56396e-81 6.98384e-81 3.06534e-80 1.32211e-79 5.60196e-79 2.33121e-78 9.525e-78 3.82003e-77 1.50333e-76 5.80361e-76 2.19714e-75 8.15439e-75 2.96589e-74 1.05682e-73 3.68784e-73 1.25983e-72 4.21174e-72 1.37737e-71 4.40462e-71 1.37677e-70 4.20461e-70 1.25406e-69 3.65132e-69 1.03735e-68 2.87439e-68 7.76438e-68 2.04363e-67 5.23866e-67 1.30721e-66 3.17363e-66 7.49263e-66 1.71931e-65 3.83259e-65 8.29506e-65 1.74226e-64 3.54934e-64 7.00975e-64 1.34142e-63 2.48613e-63 4.46048e-63 7.7438e-63 1.30038e-62 2.11145e-62 3.31406e-62 5.02704e-62 7.36839e-62 1.04357e-61 1.4282e-61 1.88911e-61 2.4159e-61 2.98872e-61 3.57929e-61 4.15382e-61 4.67736e-61 5.11892e-61 5.45629e-61 5.6796e-61 5.79282e-61 5.81309e-61 5.7681e-61 5.69192e-61 5.62029e-61 5.58575e-61 5.61354e-61 5.71841e-61 5.90306e-61 6.15815e-61 6.4641e-61 6.79448e-61 7.12034e-61 7.41498e-61 7.65802e-61 7.83831e-61 7.95496e-61 8.0165e-61 8.03847e-61 8.04006e-61 8.04055e-61 8.05616e-61 8.098e-61 8.17113e-61 8.27482e-61 8.40362e-61 8.5489e-61 8.70023e-61 8.84652e-61 8.97663e-61 9.07961e-61 9.14501e-61 9.16323e-61 9.12636e-61 9.02919e-61 8.87032e-61 8.6527e-61 8.3836e-61 8.0738e-61 7.7362e-61 7.38428e-61 7.03092e-61 6.68771e-61 6.36503e-61 6.07242e-61 5.81903e-61 5.61358e-61 5.46374e-61 5.37477e-61 5.34804e-61 5.37982e-61 5.46093e-61 5.5776e-61 5.71336e-61 5.85157e-61 5.9781e-61 6.08339e-61 6.16351e-61 6.22024e-61 6.26003e-61 6.29236e-61 6.3276e-61 6.37484e-61 6.4399e-61 6.52387e-61 6.62258e-61 6.72707e-61 6.82519e-61 6.9042e-61 6.95373e-61 6.96867e-61 6.95115e-61 6.91116e-61 6.86558e-61 6.8357e-61 6.84366e-61 6.90843e-61 7.04221e-61 7.2477e-61 7.51693e-61 7.8317e-61 8.16572e-61 8.48781e-61 8.76582e-61 8.97035e-61 9.07773e-61 9.07179e-61 8.94436e-61 8.69471e-61 8.32825e-61 7.85533e-61 7.29012e-61 6.65004e-61 5.95532e-61 5.22859e-61 4.49398e-61 3.7758e-61 3.09674e-61 2.47599e-61 1.92768e-61 1.45989e-61 1.07456e-61 7.68171e-62 5.33035e-62 3.58871e-62 2.34351e-62 1.48406e-62 9.11268e-63 5.42545e-63 3.13215e-63 1.75353e-63 9.52193e-64 5.01615e-64 2.56428e-64 1.27245e-64 6.1311e-65 2.86956e-65 1.30507e-65 5.76989e-66 2.4808e-66 1.03774e-66 4.22515e-67 1.67509e-67 6.46939e-68 2.43502e-68 8.93603e-69 3.19868e-69 1.11729e-69 3.80984e-70 1.26874e-70 4.12801e-71 1.31274e-71 4.08183e-72 1.24147e-72 3.6947e-73 1.07633e-73 3.07034e-74 8.57934e-75 2.34906e-75 6.30448e-76 1.65905e-76 4.28215e-77 1.08439e-77 2.69504e-78 6.5754e-79 1.57536e-79 3.70732e-80 8.57187e-81 1.94762e-81 4.3417e-82 9.11738e-83 0 
0 3.69695e-117 3.04182e-116 2.44214e-115 1.94042e-114 1.526e-113 1.18771e-112 9.14786e-112 6.9717e-111 5.25683e-110 3.9213e-109 2.89341e-108 2.11164e-107 1.52409e-106 1.08775e-105 7.676e-105 5.35513e-104 3.69305e-103 2.51726e-102 1.69568e-101 1.1287e-100 7.42289e-100 4.82251e-99 3.09471e-98 1.96133e-97 1.22746e-96 7.5845e-96 4.6264e-95 2.78543e-94 1.65503e-93 9.70327e-93 5.6125e-92 3.2022e-91 1.80186e-90 9.99774e-90 5.46903e-89 2.94895e-88 1.56709e-87 8.20553e-87 4.23272e-86 2.15053e-85 1.07596e-84 5.30002e-84 2.56979e-83 1.22619e-82 5.75655e-82 2.65831e-81 1.20722e-80 5.39005e-80 2.36547e-79 1.02011e-78 4.32183e-78 1.79827e-77 7.34662e-77 2.94605e-76 1.15926e-75 4.47486e-75 1.69393e-74 6.28621e-74 2.2862e-73 8.14559e-73 2.84223e-72 9.70887e-72 3.24554e-71 1.06132e-70 3.39376e-70 1.06074e-69 3.23931e-69 9.66109e-69 2.81281e-68 7.99099e-68 2.21415e-67 5.98078e-67 1.57414e-66 4.0351e-66 1.00687e-65 2.44445e-65 5.77109e-65 1.32427e-64 2.952e-64 6.3892e-64 1.34197e-63 2.7339e-63 5.39937e-63 1.03326e-62 1.91504e-62 3.43592e-62 5.96519e-62 1.00173e-61 1.62656e-61 2.55305e-61 3.87275e-61 5.67663e-61 8.0399e-61 1.10034e-60 1.45549e-60 1.86142e-60 2.30285e-60 2.75802e-60 3.20087e-60 3.60451e-60 3.94505e-60 4.20538e-60 4.37789e-60 4.46561e-60 4.48172e-60 4.44751e-60 4.38919e-60 4.33425e-60 4.30774e-60 4.32905e-60 4.40957e-60 4.55138e-60 4.74731e-60 4.98235e-60 5.23617e-60 5.48655e-60 5.71297e-60 5.89978e-60 6.0384e-60 6.12815e-60 6.17556e-60 6.19256e-60 6.1939e-60 6.19436e-60 6.20642e-60 6.23859e-60 6.29476e-60 6.37438e-60 6.47326e-60 6.58478e-60 6.70094e-60 6.81324e-60 6.91311e-60 6.99218e-60 7.0424e-60 7.0564e-60 7.02809e-60 6.95349e-60 6.83149e-60 6.66436e-60 6.45766e-60 6.21966e-60 5.96026e-60 5.68981e-60 5.4182e-60 5.15436e-60 4.90623e-60 4.68119e-60 4.48626e-60 4.3282e-60 4.21289e-60 4.1444e-60 4.12382e-60 4.14827e-60 4.21071e-60 4.30054e-60 4.40507e-60 4.51151e-60 4.60897e-60 4.69007e-60 4.7518e-60 4.79549e-60 4.82613e-60 4.851e-60 4.87808e-60 4.91436e-60 4.96432e-60 5.02882e-60 5.10467e-60 5.18497e-60 5.2604e-60 5.32116e-60 5.35929e-60 5.37084e-60 5.35746e-60 5.3268e-60 5.29183e-60 5.26889e-60 5.27499e-60 5.32471e-60 5.42741e-60 5.58517e-60 5.79187e-60 6.03354e-60 6.28998e-60 6.53727e-60 6.7507e-60 6.9077e-60 6.99007e-60 6.98539e-60 6.88737e-60 6.69539e-60 6.41361e-60 6.04991e-60 5.61517e-60 5.12273e-60 4.58813e-60 4.02876e-60 3.46318e-60 2.91012e-60 2.38706e-60 1.90882e-60 1.4863e-60 1.12575e-60 8.2871e-61 5.92483e-61 4.11165e-61 2.76845e-61 1.80801e-61 1.14503e-61 7.03133e-62 4.1865e-62 2.417e-62 1.35321e-62 7.34837e-63 3.87123e-63 1.97904e-63 9.82056e-64 4.73196e-64 2.21474e-64 1.00728e-64 4.45335e-65 1.91477e-65 8.00974e-66 3.2612e-66 1.29294e-66 4.99358e-67 1.87958e-67 6.89782e-68 2.46916e-68 8.62496e-69 2.94113e-69 9.79484e-70 3.187e-70 1.01354e-70 3.15165e-71 9.5861e-72 2.85307e-72 8.31202e-73 2.37126e-73 6.62641e-74 1.81448e-74 4.87018e-75 1.28172e-75 3.30854e-76 8.37923e-77 2.0827e-77 5.08195e-78 1.21769e-78 2.86595e-79 6.62729e-80 1.50598e-80 3.35762e-81 7.0517e-82 0 
0 2.85167e-116 2.34574e-115 1.8828e-114 1.4956e-113 1.17589e-112 9.14979e-112 7.04548e-111 5.3681e-110 4.04667e-109 3.01784e-108 2.22623e-107 1.62433e-106 1.17209e-105 8.36328e-105 5.90035e-104 4.11539e-103 2.83743e-102 1.9336e-101 1.30222e-100 8.666e-100 5.69793e-99 3.70102e-98 2.3745e-97 1.50456e-96 9.414e-96 5.81569e-95 3.54672e-94 2.13494e-93 1.26827e-92 7.43425e-92 4.29921e-91 2.45243e-90 1.37971e-89 7.65396e-89 4.18614e-88 2.2568e-87 1.19906e-86 6.27739e-86 3.23756e-85 1.64464e-84 8.22717e-84 4.05194e-83 1.96433e-82 9.37153e-82 4.39896e-81 2.0311e-80 9.22252e-80 4.11717e-79 1.80662e-78 7.79009e-78 3.29996e-77 1.37292e-76 5.60827e-76 2.24872e-75 8.84773e-75 3.41497e-74 1.29259e-73 4.79642e-73 1.74424e-72 6.21414e-72 2.16814e-71 7.4057e-71 2.47547e-70 8.09455e-70 2.58823e-69 8.08929e-69 2.47022e-68 7.36704e-68 2.14483e-67 6.09314e-67 1.68826e-66 4.56017e-66 1.20022e-65 3.07658e-65 7.67688e-65 1.86377e-64 4.40018e-64 1.0097e-63 2.25079e-63 4.87159e-63 1.02323e-62 2.08459e-62 4.11709e-62 7.87894e-62 1.46031e-61 2.62012e-61 4.54897e-61 7.63923e-61 1.24045e-60 1.94707e-60 2.95361e-60 4.32949e-60 6.1321e-60 8.39266e-60 1.11018e-59 1.41985e-59 1.75663e-59 2.10392e-59 2.44187e-59 2.74995e-59 3.00996e-59 3.20884e-59 3.34076e-59 3.40804e-59 3.42071e-59 3.39495e-59 3.35076e-59 3.30904e-59 3.28888e-59 3.30507e-59 3.36626e-59 3.47407e-59 3.62305e-59 3.80178e-59 3.99482e-59 4.18527e-59 4.35752e-59 4.49965e-59 4.60516e-59 4.67351e-59 4.70966e-59 4.72269e-59 4.72379e-59 4.72422e-59 4.73343e-59 4.75792e-59 4.80063e-59 4.86114e-59 4.93629e-59 5.02103e-59 5.1093e-59 5.19463e-59 5.27053e-59 5.33062e-59 5.36879e-59 5.37944e-59 5.35794e-59 5.30124e-59 5.2085e-59 5.08143e-59 4.92426e-59 4.74327e-59 4.54596e-59 4.34022e-59 4.13356e-59 3.93277e-59 3.7439e-59 3.57256e-59 3.42413e-59 3.30374e-59 3.21589e-59 3.16371e-59 3.14802e-59 3.16665e-59 3.21424e-59 3.2827e-59 3.36239e-59 3.44353e-59 3.51784e-59 3.57968e-59 3.62675e-59 3.66007e-59 3.68342e-59 3.70235e-59 3.72294e-59 3.75053e-59 3.78851e-59 3.83756e-59 3.89525e-59 3.95634e-59 4.01374e-59 4.06e-59 4.08905e-59 4.0979e-59 4.08777e-59 4.0645e-59 4.03794e-59 4.02051e-59 4.02514e-59 4.06291e-59 4.14096e-59 4.26086e-59 4.41795e-59 4.60162e-59 4.79652e-59 4.98446e-59 5.14666e-59 5.26596e-59 5.32851e-59 5.32486e-59 5.25022e-59 5.10409e-59 4.8896e-59 4.61272e-59 4.28169e-59 3.90664e-59 3.49939e-59 3.07316e-59 2.64209e-59 2.22046e-59 1.82161e-59 1.45685e-59 1.13452e-59 8.59411e-60 6.32717e-60 4.52406e-60 3.13987e-60 2.11432e-60 1.38092e-60 8.74611e-61 5.37108e-61 3.19814e-61 1.84647e-61 1.03382e-61 5.61415e-62 2.95768e-62 1.51204e-62 7.50329e-63 3.61544e-63 1.69218e-63 7.69615e-64 3.40262e-64 1.463e-64 6.11998e-65 2.49179e-65 9.87911e-66 3.81553e-66 1.43618e-66 5.27068e-67 1.88674e-67 6.59068e-68 2.24749e-68 7.48506e-69 2.43554e-69 7.74587e-70 2.40873e-70 7.32678e-71 2.18075e-71 6.3537e-72 1.8127e-72 5.06589e-73 1.38727e-73 3.72381e-74 9.80106e-75 2.53019e-75 6.40858e-76 1.59304e-76 3.88754e-77 9.31598e-78 2.19284e-78 5.07138e-79 1.15255e-79 2.56996e-80 5.3981e-81 0 
0 2.17652e-115 1.78992e-114 1.43631e-113 1.14064e-112 8.96577e-112 6.97467e-111 5.36926e-110 4.08993e-109 3.08238e-108 2.29815e-107 1.69491e-106 1.23636e-105 8.91921e-105 6.36269e-104 4.48786e-103 3.12948e-102 2.15717e-101 1.4697e-100 9.89569e-100 6.58392e-99 4.32799e-98 2.81058e-97 1.80282e-96 1.14208e-95 7.14446e-95 4.41271e-94 2.69056e-93 1.61925e-92 9.61729e-92 5.63626e-91 3.25881e-90 1.85859e-89 1.04543e-88 5.79844e-88 3.17074e-87 1.70908e-86 9.07896e-86 4.75224e-85 2.45056e-84 1.24465e-83 6.22525e-83 3.06551e-82 1.4859e-81 7.08794e-81 3.32657e-80 1.53574e-79 6.97232e-79 3.11222e-78 1.36548e-77 5.88717e-77 2.49357e-76 1.03731e-75 4.23689e-75 1.69867e-74 6.68287e-74 2.57916e-73 9.76148e-73 3.62189e-72 1.31702e-71 4.69174e-71 1.63686e-70 5.59067e-70 1.86866e-69 6.11004e-69 1.95359e-68 6.10554e-68 1.86438e-67 5.56005e-67 1.61871e-66 4.59841e-66 1.27409e-65 3.44141e-65 9.05764e-65 2.32178e-64 5.79347e-64 1.40653e-63 3.32072e-63 7.6201e-63 1.69868e-62 3.67668e-62 7.72269e-62 1.57335e-61 3.10748e-61 5.94699e-61 1.10227e-60 1.97777e-60 3.43385e-60 5.76676e-60 9.36434e-60 1.46991e-59 2.22986e-59 3.26869e-59 4.62978e-59 6.33672e-59 8.38249e-59 1.07211e-58 1.32646e-58 1.58877e-58 1.84406e-58 2.07683e-58 2.27335e-58 2.42374e-58 2.52362e-58 2.57469e-58 2.58454e-58 2.56535e-58 2.53219e-58 2.50083e-58 2.48566e-58 2.49782e-58 2.54385e-58 2.62498e-58 2.7371e-58 2.87164e-58 3.01696e-58 3.16035e-58 3.29005e-58 3.3971e-58 3.47659e-58 3.52811e-58 3.5554e-58 3.56528e-58 3.56617e-58 3.56654e-58 3.57351e-58 3.59196e-58 3.6241e-58 3.66963e-58 3.72616e-58 3.7899e-58 3.85629e-58 3.92047e-58 3.97756e-58 4.02276e-58 4.05148e-58 4.05951e-58 4.04334e-58 4.00069e-58 3.93091e-58 3.83529e-58 3.717e-58 3.58075e-58 3.4322e-58 3.27728e-58 3.12164e-58 2.97038e-58 2.82808e-58 2.69896e-58 2.58708e-58 2.49631e-58 2.43008e-58 2.39072e-58 2.37888e-58 2.39293e-58 2.42883e-58 2.48048e-58 2.54061e-58 2.60184e-58 2.65792e-58 2.7046e-58 2.74013e-58 2.76527e-58 2.78289e-58 2.79715e-58 2.81265e-58 2.8334e-58 2.86199e-58 2.89891e-58 2.94234e-58 2.98835e-58 3.03159e-58 3.06644e-58 3.08835e-58 3.09506e-58 3.08748e-58 3.06999e-58 3.05002e-58 3.0369e-58 3.04038e-58 3.06879e-58 3.12749e-58 3.21768e-58 3.33586e-58 3.47404e-58 3.62066e-58 3.76204e-58 3.88406e-58 3.97378e-58 4.0208e-58 4.018e-58 3.96173e-58 3.85163e-58 3.69001e-58 3.48137e-58 3.23187e-58 2.94913e-58 2.64204e-58 2.32054e-58 1.99532e-58 1.67714e-58 1.37607e-58 1.10067e-58 8.57258e-59 6.49465e-59 4.78206e-59 3.41964e-59 2.37359e-59 1.59846e-59 1.04408e-59 6.61317e-60 4.06146e-60 2.41846e-60 1.39637e-60 7.81839e-61 4.24585e-61 2.23686e-61 1.14356e-61 5.67478e-62 2.73438e-62 1.27981e-62 5.82065e-63 2.57342e-63 1.10648e-63 4.62856e-64 1.88455e-64 7.4716e-65 2.8857e-65 1.0862e-65 3.9863e-66 1.42699e-66 4.98477e-67 1.69989e-67 5.66146e-68 1.84222e-68 5.85909e-69 1.82207e-69 5.54252e-70 1.64976e-70 4.80689e-71 1.37148e-71 3.83305e-72 1.04974e-72 2.81798e-73 7.41748e-74 1.91502e-74 4.85086e-75 1.20593e-75 2.94316e-76 7.05362e-77 1.66049e-77 3.84064e-78 8.72949e-79 1.94673e-79 4.0895e-80 0 
0 1.64358e-114 1.35131e-113 1.08407e-112 8.60691e-112 6.76357e-111 5.26021e-110 4.04842e-109 3.08305e-108 2.32297e-107 1.73153e-106 1.27672e-105 9.31084e-105 6.71532e-104 4.78938e-103 3.37735e-102 2.35455e-101 1.62264e-100 1.10527e-99 7.44026e-99 4.94914e-98 3.25265e-97 2.11179e-96 1.3543e-95 8.57766e-95 5.36476e-94 3.31281e-93 2.01951e-92 1.21515e-91 7.21578e-91 4.22802e-90 2.44412e-89 1.39369e-88 7.83781e-88 4.34644e-87 2.37633e-86 1.28066e-85 6.80193e-85 3.55977e-84 1.83534e-83 9.32031e-83 4.66093e-82 2.29484e-81 1.11218e-80 5.30449e-80 2.4892e-79 1.14901e-78 5.21587e-78 2.3279e-77 1.02124e-76 4.40249e-76 1.86451e-75 7.75545e-75 3.16738e-74 1.26975e-73 4.99499e-73 1.92758e-72 7.29482e-72 2.70646e-71 9.84071e-71 3.50543e-70 1.2229e-69 4.17658e-69 1.39594e-68 4.56417e-68 1.45927e-67 4.56048e-67 1.39254e-66 4.15283e-66 1.209e-65 3.43447e-65 9.51586e-65 2.57031e-64 6.76495e-64 1.7341e-63 4.32709e-63 1.05054e-62 2.4803e-62 5.69171e-62 1.26883e-61 2.74638e-61 5.76883e-61 1.17533e-60 2.32143e-60 4.44285e-60 8.23505e-60 1.47765e-59 2.56563e-59 4.30884e-59 6.99716e-59 1.09838e-58 1.6663e-58 2.44267e-58 3.45992e-58 4.73572e-58 6.26484e-58 8.01294e-58 9.91434e-58 1.18754e-57 1.37843e-57 1.55252e-57 1.69954e-57 1.81211e-57 1.88695e-57 1.92533e-57 1.9329e-57 1.91875e-57 1.89412e-57 1.87079e-57 1.85948e-57 1.86852e-57 1.90279e-57 1.96321e-57 2.04673e-57 2.14696e-57 2.25524e-57 2.36209e-57 2.45876e-57 2.53856e-57 2.59783e-57 2.63626e-57 2.65665e-57 2.66406e-57 2.66478e-57 2.66509e-57 2.67031e-57 2.68406e-57 2.708e-57 2.7419e-57 2.78399e-57 2.83144e-57 2.88086e-57 2.92864e-57 2.97114e-57 3.0048e-57 3.02619e-57 3.03217e-57 3.02014e-57 2.98839e-57 2.93643e-57 2.86521e-57 2.77709e-57 2.67558e-57 2.56489e-57 2.44943e-57 2.33341e-57 2.22064e-57 2.11452e-57 2.01822e-57 1.93475e-57 1.86702e-57 1.81759e-57 1.78821e-57 1.77937e-57 1.78986e-57 1.81666e-57 1.85524e-57 1.90014e-57 1.94588e-57 1.98777e-57 2.02263e-57 2.04917e-57 2.06796e-57 2.08111e-57 2.09174e-57 2.10329e-57 2.11874e-57 2.14003e-57 2.16754e-57 2.1999e-57 2.23419e-57 2.26643e-57 2.29242e-57 2.30878e-57 2.31381e-57 2.30819e-57 2.29519e-57 2.28032e-57 2.27055e-57 2.27313e-57 2.29428e-57 2.33798e-57 2.40513e-57 2.49312e-57 2.596e-57 2.70518e-57 2.81045e-57 2.90129e-57 2.96808e-57 3.00307e-57 3.00093e-57 2.95895e-57 2.87684e-57 2.75632e-57 2.6007e-57 2.41458e-57 2.20361e-57 1.97441e-57 1.73439e-57 1.49153e-57 1.25386e-57 1.02893e-57 8.23117e-58 6.41169e-58 4.85815e-58 3.57751e-58 2.55855e-58 1.77608e-58 1.19618e-58 7.81376e-59 4.94953e-59 3.0399e-59 1.81024e-59 1.04523e-59 5.8525e-60 3.17832e-60 1.67447e-60 8.56046e-61 4.24805e-61 2.04691e-61 9.58036e-62 4.35718e-62 1.92637e-62 8.28261e-63 3.46471e-63 1.41067e-63 5.59278e-64 2.16005e-64 8.13054e-65 2.98388e-65 1.06816e-65 3.73131e-66 1.27246e-66 4.23797e-67 1.37905e-67 4.38611e-68 1.36404e-68 4.1494e-69 1.23514e-69 3.59897e-70 1.02689e-70 2.87016e-71 7.86081e-72 2.11034e-72 5.55524e-73 1.43434e-73 3.63357e-74 9.03391e-75 2.20499e-75 5.285e-76 1.24427e-76 2.87824e-77 6.54275e-78 1.45924e-78 3.06576e-79 0 