# vtk DataFile Version 3.0
Gray-Scott Simulation Output
ASCII
DATASET STRUCTURED_POINTS
DIMENSIONS 256 256 1
SPACING 1.0 1.0 1.0
ORIGIN 0 0 0
POINT_DATA 65536
SCALARS u double
LOOKUP_TABLE default
0 0 0 0 0 0 0 0 0 0 0 0 0 0 0 0 0 0 0 0 0 0 0 0 0 0 0 0 0 0 0 0 0 0 0 0 0 0 0 0 0 0 0 0 0 0 0 0 0 0 0 0 0 0 0 0 0 0 0 0 0 0 0 0 0 0 0 0 0 0 0 0 0 0 0 0 0 0 0 0 0 0 0 0 0 0 0 0 0 0 0 0 0 0 0 0 0 0 0 0 0 0 0 0 0 0 0 0 0 0 0 0 0 0 0 0 0 0 0 0 0 0 0 0 0 0 0 0 0 0 0 0 0 0 0 0 0 0 0 0 0 0 0 0 0 0 0 0 0 0 0 0 0 0 0 0 0 0 0 0 0 0 0 0 0 0 0 0 0 0 0 0 0 0 0 0 0 0 0 0 0 0 0 0 0 0 0 0 0 0 0 0 0 0 0 0 0 0 0 0 0 0 0 0 0 0 0 0 0 0 0 0 0 0 0 0 0 0 0 0 0 0 0 0 0 0 0 0 0 0 0 0 0 0 0 0 0 0 0 0 0 0 0 0 0 0 0 0 0 0 0 0 0 0 0 0 
0 2.90075e-144 3.40161e-143 3.91968e-142 4.46907e-141 5.04155e-140 5.62661e-139 6.21183e-138 6.78323e-137 7.32573e-136 7.82374e-135 8.26188e-134 8.6257e-133 8.90244e-132 9.08178e-131 9.15646e-130 9.12272e-129 8.9806e-128 8.73401e-127 8.39057e-126 7.96121e-125 7.45961e-124 6.90145e-123 6.30359e-122 5.68321e-121 5.05697e-120 4.44028e-119 3.84666e-118 3.28729e-117 2.77077e-116 2.303e-115 1.88731e-114 1.52464e-113 1.21391e-112 9.52389e-112 7.36152e-111 5.60475e-110 4.20234e-109 3.10225e-108 2.25434e-107 1.61221e-106 1.13443e-105 7.85213e-105 5.34492e-104 3.57708e-103 2.35308e-102 1.52106e-101 9.65908e-101 6.02396e-100 3.68855e-99 2.21678e-98 1.30721e-97 7.56107e-97 4.28833e-96 2.38401e-95 1.29863e-94 6.92881e-94 3.61959e-93 1.85061e-92 9.25636e-92 4.52744e-91 2.16449e-90 1.011e-89 4.61132e-89 2.05289e-88 8.91551e-88 3.77514e-87 1.5577e-86 6.25957e-86 2.44825e-85 9.31416e-85 3.4445e-84 1.2374e-83 4.31506e-83 1.45962e-82 4.78568e-82 1.51968e-81 4.66995e-81 1.38757e-80 3.98295e-80 1.10349e-79 2.94808e-79 7.58762e-79 1.87951e-78 4.47632e-78 1.024e-77 2.24772e-77 4.72943e-77 9.52943e-77 1.83696e-76 3.3846e-76 5.95561e-76 1.00007e-75 1.60161e-75 2.44519e-75 3.55796e-75 4.93449e-75 6.52529e-75 8.23393e-75 9.92656e-75 1.14536e-74 1.26785e-74 1.35053e-74 1.38973e-74 1.3881e-74 1.35378e-74 1.29865e-74 1.23634e-74 1.1805e-74 1.14319e-74 1.13377e-74 1.15771e-74 1.21584e-74 1.30395e-74 1.41316e-74 1.5312e-74 1.64457e-74 1.74097e-74 1.81159e-74 1.85264e-74 1.86562e-74 1.85652e-74 1.8342e-74 1.8084e-74 1.78791e-74 1.77919e-74 1.78567e-74 1.80763e-74 1.84276e-74 1.88709e-74 1.93615e-74 1.98592e-74 2.03335e-74 2.07623e-74 2.11254e-74 2.13975e-74 2.15449e-74 2.1529e-74 2.13157e-74 2.08876e-74 2.02529e-74 1.9446e-74 1.8521e-74 1.75389e-74 1.65542e-74 1.56059e-74 1.47152e-74 1.38904e-74 1.31364e-74 1.24649e-74 1.19005e-74 1.1479e-74 1.12387e-74 1.12055e-74 1.13798e-74 1.17298e-74 1.21949e-74 1.26987e-74 1.3167e-74 1.35432e-74 1.37976e-74 1.39287e-74 1.39575e-74 1.39203e-74 1.38617e-74 1.38285e-74 1.38641e-74 1.40012e-74 1.42539e-74 1.46102e-74 1.503e-74 1.54497e-74 1.57953e-74 1.59996e-74 1.60201e-74 1.58518e-74 1.55321e-74 1.51366e-74 1.47661e-74 1.45288e-74 1.45204e-74 1.48063e-74 1.54088e-74 1.63018e-74 1.74124e-74 1.86306e-74 1.98255e-74 2.08652e-74 2.16364e-74 2.20606e-74 2.21007e-74 2.17583e-74 2.10627e-74 2.00559e-74 1.87813e-74 1.72788e-74 1.55874e-74 1.37523e-74 1.18312e-74 9.89495e-75 8.02215e-75 6.28878e-75 4.75681e-75 3.46563e-75 2.42862e-75 1.63524e-75 1.05705e-75 6.55635e-76 3.90055e-76 2.22548e-76 1.21777e-76 6.39195e-77 3.21932e-77 1.55649e-77 7.22792e-78 3.22573e-78 1.38447e-78 5.71868e-79 2.27503e-79 8.72361e-80 3.22675e-80 1.15222e-80 3.97517e-81 1.32605e-81 4.2804e-82 1.338e-82 4.05323e-83 1.19077e-83 3.39502e-84 9.40028e-85 2.52935e-85 6.61796e-86 1.68483e-86 4.17602e-87 1.00831e-87 2.37299e-88 5.44629e-89 1.21964e-89 2.66631e-90 5.69306e-91 1.18779e-91 2.42265e-92 4.83267e-93 9.43216e-94 1.80194e-94 3.3709e-95 6.17721e-96 1.10928e-96 1.95273e-97 3.37094e-98 5.70833e-99 9.48541e-100 1.54712e-100 2.47639e-101 3.80593e-102 0 
0 3.40213e-143 3.9878e-142 4.5931e-141 5.23457e-140 5.90249e-139 6.58454e-138 7.26619e-137 7.93109e-136 8.56163e-135 9.13967e-134 9.64729e-133 1.00677e-131 1.03862e-130 1.05909e-129 1.06733e-128 1.06294e-127 1.04593e-126 1.01678e-125 9.76381e-125 9.26024e-124 8.67312e-123 8.02076e-122 7.32285e-121 6.59938e-120 5.86974e-119 5.15179e-118 4.46119e-117 3.81088e-116 3.21076e-115 2.66762e-114 2.18522e-113 1.76459e-112 1.40438e-111 1.10138e-110 8.50976e-110 6.47639e-109 4.85394e-108 3.58186e-107 2.60184e-106 1.86e-105 1.30828e-104 9.05194e-104 6.15926e-103 4.1205e-102 2.70952e-101 1.75081e-100 1.11139e-99 6.92869e-99 4.24096e-98 2.54784e-97 1.50189e-96 8.68398e-96 4.92343e-95 2.73611e-94 1.48991e-93 7.94662e-93 4.14987e-92 2.121e-91 1.06052e-90 5.18547e-90 2.47827e-89 1.15718e-88 5.2764e-88 2.34823e-87 1.0195e-86 4.31557e-86 1.78015e-85 7.15137e-85 2.79623e-84 1.0635e-83 3.93184e-83 1.41208e-82 4.92287e-82 1.66478e-81 5.45692e-81 1.73239e-80 5.3223e-80 1.58103e-79 4.53719e-79 1.25676e-78 3.35682e-78 8.63783e-78 2.13922e-77 5.09389e-77 1.16506e-76 2.55691e-76 5.37912e-76 1.08368e-75 2.08869e-75 3.84792e-75 6.77007e-75 1.13672e-74 1.82029e-74 2.77885e-74 4.04322e-74 5.60726e-74 7.41478e-74 9.35629e-74 1.12798e-73 1.30155e-73 1.44083e-73 1.53493e-73 1.57965e-73 1.57801e-73 1.53923e-73 1.47678e-73 1.40617e-73 1.34285e-73 1.30054e-73 1.28985e-73 1.317e-73 1.38294e-73 1.48289e-73 1.60677e-73 1.7407e-73 1.86932e-73 1.97871e-73 2.05888e-73 2.10551e-73 2.12031e-73 2.11006e-73 2.08482e-73 2.05563e-73 2.03243e-73 2.02258e-73 2.02994e-73 2.05485e-73 2.09468e-73 2.14494e-73 2.20055e-73 2.25696e-73 2.31073e-73 2.35933e-73 2.40049e-73 2.43133e-73 2.44804e-73 2.44622e-73 2.42203e-73 2.3735e-73 2.30151e-73 2.20999e-73 2.10506e-73 1.99362e-73 1.88186e-73 1.7742e-73 1.67305e-73 1.57936e-73 1.49368e-73 1.41737e-73 1.3532e-73 1.30528e-73 1.27793e-73 1.27412e-73 1.2939e-73 1.33366e-73 1.38651e-73 1.44379e-73 1.49704e-73 1.53984e-73 1.56881e-73 1.58377e-73 1.58709e-73 1.58291e-73 1.57628e-73 1.57251e-73 1.57654e-73 1.5921e-73 1.62076e-73 1.66118e-73 1.70881e-73 1.75644e-73 1.79568e-73 1.8189e-73 1.82126e-73 1.80221e-73 1.76599e-73 1.72116e-73 1.67917e-73 1.65227e-73 1.65132e-73 1.68375e-73 1.75208e-73 1.85334e-73 1.97926e-73 2.11739e-73 2.25288e-73 2.37076e-73 2.45821e-73 2.5063e-73 2.51084e-73 2.472e-73 2.39307e-73 2.27881e-73 2.13413e-73 1.96354e-73 1.77147e-73 1.56305e-73 1.34482e-73 1.12483e-73 9.12023e-74 7.15031e-74 5.40903e-74 3.94124e-74 2.76223e-74 1.86008e-74 1.20254e-74 7.45963e-75 4.4385e-75 2.53274e-75 1.38609e-75 7.27646e-76 3.66534e-76 1.77241e-76 8.23188e-77 3.6744e-77 1.57731e-77 6.51638e-78 2.59286e-78 9.94426e-79 3.67899e-79 1.31399e-79 4.53422e-80 1.51287e-80 4.88458e-81 1.52722e-81 4.62756e-82 1.35984e-82 3.87803e-83 1.07404e-83 2.89072e-84 7.56553e-85 1.9266e-85 4.77662e-86 1.15366e-86 2.71586e-87 6.23507e-88 1.39671e-88 3.05433e-89 6.52359e-90 1.3615e-90 2.77785e-91 5.543e-92 1.08221e-92 2.06817e-93 3.87023e-94 7.09465e-95 1.27446e-95 2.2443e-96 3.87562e-97 6.56527e-98 1.09133e-98 1.78065e-99 2.85123e-100 4.38353e-101 0 
0 3.9209e-142 4.59383e-141 5.28874e-140 6.02465e-139 6.79034e-138 7.5716e-137 8.35171e-136 9.11188e-135 9.83194e-134 1.04911e-132 1.10689e-131 1.15462e-130 1.19062e-129 1.21355e-128 1.22246e-127 1.2169e-126 1.19691e-125 1.16305e-124 1.11635e-123 1.05832e-122 9.90796e-122 9.15881e-121 8.35831e-120 7.52934e-119 6.69405e-118 5.87279e-117 5.08341e-116 4.34058e-115 3.65553e-114 3.03589e-113 2.48587e-112 2.00654e-111 1.59629e-110 1.25138e-109 9.66473e-109 7.35242e-108 5.5083e-107 4.06311e-106 2.95025e-105 2.10823e-104 1.4823e-103 1.0252e-102 6.97309e-102 4.66315e-101 3.06518e-100 1.97987e-99 1.25632e-98 7.82929e-98 4.79043e-97 2.87688e-96 1.69523e-95 9.79832e-95 5.55322e-94 3.085e-93 1.6793e-92 8.95362e-92 4.67412e-91 2.38813e-90 1.19369e-89 5.83463e-89 2.7876e-88 1.30119e-87 5.93113e-87 2.63878e-86 1.14528e-85 4.84652e-85 1.99856e-84 8.02637e-84 3.13744e-83 1.19293e-82 4.40911e-82 1.58304e-81 5.5174e-81 1.86534e-80 6.11274e-80 1.9401e-79 5.95897e-79 1.76973e-78 5.07756e-78 1.40612e-77 3.75496e-77 9.6603e-77 2.39196e-76 5.69463e-76 1.30223e-75 2.85745e-75 6.0104e-75 1.21068e-74 2.33313e-74 4.2977e-74 7.56055e-74 1.26932e-73 2.03244e-73 3.10249e-73 4.51387e-73 6.25973e-73 8.2774e-73 1.04448e-72 1.25923e-72 1.45306e-72 1.60865e-72 1.71386e-72 1.76399e-72 1.76239e-72 1.71934e-72 1.64987e-72 1.57125e-72 1.50072e-72 1.45359e-72 1.44167e-72 1.47193e-72 1.5454e-72 1.65677e-72 1.79483e-72 1.94408e-72 2.08745e-72 2.2094e-72 2.2988e-72 2.35084e-72 2.36741e-72 2.35608e-72 2.32804e-72 2.29558e-72 2.2698e-72 2.25886e-72 2.26708e-72 2.29484e-72 2.3392e-72 2.39517e-72 2.4571e-72 2.51991e-72 2.57978e-72 2.6339e-72 2.67972e-72 2.71406e-72 2.73266e-72 2.73063e-72 2.70368e-72 2.64962e-72 2.56943e-72 2.46745e-72 2.35051e-72 2.22629e-72 2.10168e-72 1.98162e-72 1.86877e-72 1.76422e-72 1.66858e-72 1.58338e-72 1.51172e-72 1.45818e-72 1.42761e-72 1.42332e-72 1.44537e-72 1.48973e-72 1.54873e-72 1.6127e-72 1.6722e-72 1.72004e-72 1.75245e-72 1.76921e-72 1.77298e-72 1.76836e-72 1.76098e-72 1.75679e-72 1.76128e-72 1.7786e-72 1.81054e-72 1.85559e-72 1.90868e-72 1.96179e-72 2.00555e-72 2.03147e-72 2.03415e-72 2.01297e-72 1.97266e-72 1.92275e-72 1.87598e-72 1.84603e-72 1.84499e-72 1.88111e-72 1.95723e-72 2.07002e-72 2.21028e-72 2.36414e-72 2.51505e-72 2.64635e-72 2.74376e-72 2.79732e-72 2.80237e-72 2.75908e-72 2.6711e-72 2.54372e-72 2.38239e-72 2.19213e-72 1.97786e-72 1.74531e-72 1.50176e-72 1.25622e-72 1.01865e-72 7.98711e-73 6.0427e-73 4.40345e-73 3.08653e-73 2.07871e-73 1.34404e-73 8.33845e-74 4.96203e-74 2.83185e-74 1.55e-74 8.13805e-75 4.09995e-75 1.98286e-75 9.21079e-76 4.11202e-76 1.76548e-76 7.29504e-77 2.90323e-77 1.11367e-77 4.12098e-78 1.47215e-78 5.0811e-79 1.69572e-79 5.47617e-80 1.7126e-80 5.19049e-81 1.52564e-81 4.35197e-82 1.20562e-82 3.24571e-83 8.4969e-84 2.16438e-84 5.36767e-85 1.29679e-85 3.05369e-86 7.01275e-87 1.57139e-87 3.4374e-88 7.34405e-89 1.53322e-89 3.12921e-90 6.24616e-91 1.2199e-91 2.33208e-92 4.36557e-93 8.00541e-94 1.43857e-94 2.53417e-95 4.37773e-96 7.41847e-97 1.2336e-97 2.01351e-98 3.22527e-99 4.96032e-100 0 
0 4.47118e-141 5.23624e-140 6.02562e-139 6.86099e-138 7.72951e-137 8.61498e-136 9.49836e-135 1.03583e-133 1.11719e-132 1.19156e-131 1.25663e-130 1.31024e-129 1.35051e-128 1.37591e-127 1.38542e-126 1.37852e-125 1.35528e-124 1.31636e-123 1.26297e-122 1.19681e-121 1.11997e-120 1.03484e-119 9.43993e-119 8.5001e-118 7.55392e-117 6.62439e-116 5.73158e-115 4.892e-114 4.11821e-113 3.41873e-112 2.79819e-111 2.25771e-110 1.79538e-109 1.40688e-108 1.08613e-107 8.2594e-107 6.18532e-106 4.5607e-105 3.31024e-104 2.36455e-103 1.66186e-102 1.14894e-101 7.81177e-101 5.222e-100 3.43121e-99 2.21546e-98 1.40529e-97 8.75439e-97 5.35447e-96 3.21444e-95 1.89345e-94 1.09401e-93 6.1981e-93 3.44204e-92 1.87299e-91 9.9829e-91 5.20965e-90 2.66084e-89 1.32956e-88 6.49658e-88 3.10285e-87 1.44787e-86 6.59764e-86 2.93438e-85 1.27318e-84 5.38614e-84 2.22041e-83 8.91473e-83 3.48368e-82 1.3242e-81 4.89294e-81 1.75628e-80 6.11954e-80 2.06838e-79 6.77636e-79 2.15019e-78 6.60266e-78 1.96044e-77 5.62344e-77 1.55695e-76 4.15686e-76 1.06921e-75 2.64692e-75 6.30045e-75 1.44051e-74 3.16035e-74 6.64647e-74 1.33861e-73 2.57931e-73 4.75058e-73 8.35633e-73 1.40278e-72 2.24596e-72 3.42817e-72 4.98744e-72 6.91621e-72 9.1453e-72 1.15399e-71 1.39129e-71 1.60552e-71 1.77755e-71 1.89397e-71 1.94959e-71 1.94809e-71 1.9008e-71 1.82432e-71 1.73768e-71 1.65993e-71 1.60797e-71 1.59482e-71 1.62818e-71 1.7092e-71 1.83203e-71 1.98429e-71 2.14892e-71 2.30707e-71 2.4416e-71 2.54027e-71 2.59775e-71 2.61612e-71 2.60372e-71 2.5729e-71 2.53718e-71 2.50882e-71 2.4968e-71 2.50589e-71 2.53649e-71 2.5854e-71 2.64708e-71 2.71532e-71 2.78455e-71 2.85052e-71 2.91016e-71 2.96065e-71 2.99849e-71 3.01898e-71 3.01674e-71 2.98703e-71 2.92742e-71 2.83901e-71 2.72657e-71 2.59759e-71 2.46056e-71 2.32306e-71 2.19053e-71 2.06594e-71 1.95046e-71 1.84482e-71 1.75066e-71 1.67146e-71 1.61227e-71 1.57844e-71 1.57365e-71 1.59798e-71 1.64697e-71 1.71217e-71 1.78287e-71 1.84866e-71 1.90158e-71 1.93747e-71 1.95606e-71 1.96029e-71 1.95523e-71 1.94712e-71 1.94249e-71 1.94744e-71 1.96654e-71 2.00176e-71 2.05146e-71 2.11002e-71 2.16862e-71 2.21692e-71 2.24555e-71 2.24857e-71 2.22527e-71 2.18086e-71 2.12586e-71 2.07433e-71 2.04133e-71 2.04018e-71 2.08001e-71 2.16392e-71 2.28827e-71 2.44289e-71 2.61249e-71 2.77885e-71 2.92359e-71 3.03096e-71 3.09e-71 3.09555e-71 3.0478e-71 2.95075e-71 2.8102e-71 2.63217e-71 2.42215e-71 2.18558e-71 1.92877e-71 1.65978e-71 1.38853e-71 1.12606e-71 8.83018e-72 6.68126e-72 4.86933e-72 3.41347e-72 2.29917e-72 1.48677e-72 9.22506e-73 5.49032e-73 3.13376e-73 1.71547e-73 9.00811e-74 4.53893e-74 2.1955e-74 1.02001e-74 4.55441e-75 1.95574e-75 8.08263e-76 3.21725e-76 1.23436e-76 4.56847e-77 1.63234e-77 5.63517e-78 1.88104e-78 6.076e-79 1.90062e-79 5.76172e-80 1.69395e-80 4.8333e-81 1.3393e-81 3.60654e-82 9.44407e-83 2.4063e-83 5.96931e-84 1.44255e-84 3.39792e-85 7.80556e-86 1.74956e-86 3.82832e-87 8.18179e-88 1.70866e-88 3.48837e-89 6.96532e-90 1.3608e-90 2.60229e-91 4.87303e-92 8.93901e-93 1.60689e-93 2.83166e-94 4.89334e-95 8.29516e-96 1.37987e-96 2.25307e-97 3.61031e-98 5.55444e-99 0 
0 5.04476e-140 5.90534e-139 6.79255e-138 7.73078e-137 8.70553e-136 9.69849e-135 1.06882e-133 1.16507e-132 1.25603e-131 1.33905e-130 1.41156e-129 1.47113e-128 1.51568e-127 1.54352e-126 1.5535e-125 1.5451e-124 1.5184e-123 1.47416e-122 1.41376e-121 1.33912e-120 1.25261e-119 1.15691e-118 1.0549e-117 9.49475e-117 8.43431e-116 7.39335e-115 6.39423e-114 5.45532e-113 4.59053e-112 3.80925e-111 3.11656e-110 2.51356e-109 1.99802e-108 1.56504e-107 1.20775e-106 9.18055e-106 6.87242e-105 5.06532e-104 3.67505e-103 2.62411e-102 1.84358e-101 1.27408e-100 8.65927e-100 5.78633e-99 3.80058e-98 2.45303e-97 1.5554e-96 9.68594e-96 5.92207e-95 3.55389e-94 2.09265e-93 1.20867e-92 6.84529e-92 3.80012e-91 2.06712e-90 1.10138e-89 5.74569e-89 2.93364e-88 1.46538e-87 7.1579e-87 3.41759e-86 1.59423e-85 7.26227e-85 3.22899e-84 1.40058e-83 5.92329e-83 2.44113e-82 9.79804e-82 3.82777e-81 1.45458e-80 5.37323e-80 1.92816e-79 6.71667e-79 2.26962e-78 7.43382e-78 2.35824e-77 7.23979e-77 2.14912e-76 6.1633e-76 1.70605e-75 4.554e-75 1.17112e-74 2.89868e-74 6.89844e-74 1.57696e-73 3.45914e-73 7.27374e-73 1.46473e-72 2.82196e-72 5.19687e-72 9.14038e-72 1.53425e-71 2.45625e-71 3.74892e-71 5.45379e-71 7.56265e-71 9.99992e-71 1.26183e-70 1.52135e-70 1.75567e-70 1.94392e-70 2.07142e-70 2.13249e-70 2.13115e-70 2.07976e-70 1.99641e-70 1.90194e-70 1.81712e-70 1.76042e-70 1.74606e-70 1.78246e-70 1.87088e-70 2.00494e-70 2.17113e-70 2.35083e-70 2.52347e-70 2.67037e-70 2.77813e-70 2.84096e-70 2.86111e-70 2.84769e-70 2.81415e-70 2.77527e-70 2.74438e-70 2.73131e-70 2.74126e-70 2.77466e-70 2.82801e-70 2.89529e-70 2.96971e-70 3.04521e-70 3.11715e-70 3.18219e-70 3.23725e-70 3.27851e-70 3.30085e-70 3.2984e-70 3.26599e-70 3.20096e-70 3.10449e-70 2.98179e-70 2.84101e-70 2.69141e-70 2.54125e-70 2.39649e-70 2.26035e-70 2.13414e-70 2.01863e-70 1.91567e-70 1.82903e-70 1.76426e-70 1.72723e-70 1.72194e-70 1.74849e-70 1.80205e-70 1.87334e-70 1.95068e-70 2.02267e-70 2.08062e-70 2.11994e-70 2.14035e-70 2.14505e-70 2.13957e-70 2.13073e-70 2.12569e-70 2.13108e-70 2.15192e-70 2.19036e-70 2.2446e-70 2.30855e-70 2.37254e-70 2.4253e-70 2.4566e-70 2.45995e-70 2.43458e-70 2.38617e-70 2.3262e-70 2.26999e-70 2.234e-70 2.23276e-70 2.27622e-70 2.36777e-70 2.50343e-70 2.67211e-70 2.85714e-70 3.03862e-70 3.19651e-70 3.31364e-70 3.37805e-70 3.3841e-70 3.33197e-70 3.22601e-70 3.07255e-70 2.87811e-70 2.64869e-70 2.3902e-70 2.10954e-70 1.8155e-70 1.51895e-70 1.23195e-70 9.6616e-71 7.31116e-71 5.32901e-71 3.73615e-71 2.51681e-71 1.62771e-71 1.01008e-71 6.01226e-72 3.43211e-72 1.87904e-72 9.86835e-73 4.97308e-73 2.40584e-73 1.1179e-73 4.9923e-74 2.14413e-74 8.8627e-75 3.52837e-75 1.35398e-75 5.01215e-76 1.79122e-76 6.18493e-77 2.06499e-77 6.67163e-78 2.08741e-78 6.32944e-79 1.8613e-79 5.31211e-80 1.47235e-80 3.96584e-81 1.03877e-81 2.64744e-82 6.56929e-83 1.58799e-83 3.74157e-84 8.59747e-85 1.92764e-85 4.21923e-86 9.02001e-87 1.88429e-87 3.84815e-88 7.68616e-89 1.50211e-89 2.87347e-90 5.38264e-91 9.87712e-92 1.77612e-92 3.13096e-93 5.41245e-94 9.17836e-95 1.52733e-95 2.49473e-96 3.99898e-97 6.15454e-98 0 
0 5.63113e-139 6.58882e-138 7.57532e-137 8.61783e-136 9.7001e-135 1.08017e-133 1.18987e-132 1.29645e-131 1.39705e-130 1.48874e-129 1.56866e-128 1.63415e-127 1.6829e-126 1.71307e-125 1.7234e-124 1.71334e-123 1.68301e-122 1.63327e-121 1.56569e-120 1.48239e-119 1.38603e-118 1.2796e-117 1.16628e-116 1.04928e-115 9.317e-115 8.16369e-114 7.05755e-113 6.01874e-112 5.06255e-111 4.19922e-110 3.43421e-109 2.76862e-108 2.19988e-107 1.72246e-106 1.3287e-105 1.00959e-104 7.55468e-104 5.56598e-103 4.03672e-102 2.88124e-101 2.02344e-100 1.39784e-99 9.4968e-99 6.34359e-98 4.16503e-97 2.68726e-96 1.70329e-95 1.0603e-94 6.4804e-94 3.88754e-93 2.28829e-92 1.3212e-91 7.47999e-91 4.15102e-90 2.25722e-89 1.20226e-88 6.26984e-88 3.20019e-87 1.598e-86 7.80318e-86 3.72449e-85 1.73685e-84 7.90947e-84 3.51567e-83 1.52447e-82 6.44532e-82 2.6555e-81 1.06554e-80 4.16154e-80 1.58098e-79 5.83858e-79 2.09459e-78 7.29456e-78 2.46428e-77 8.06939e-77 2.55925e-76 7.85508e-76 2.33124e-75 6.68414e-75 1.84983e-74 4.93681e-74 1.26932e-73 3.14115e-73 7.47417e-73 1.70828e-72 3.74661e-72 7.87705e-72 1.586e-71 3.05522e-71 5.62577e-71 9.8937e-71 1.66055e-70 2.65824e-70 4.05695e-70 5.90162e-70 8.18337e-70 1.08205e-69 1.36539e-69 1.64624e-69 1.89988e-69 2.10374e-69 2.24193e-69 2.3083e-69 2.30716e-69 2.25189e-69 2.16203e-69 2.06009e-69 1.96852e-69 1.90729e-69 1.89178e-69 1.93108e-69 2.02657e-69 2.17134e-69 2.35084e-69 2.54494e-69 2.73145e-69 2.89016e-69 3.00663e-69 3.07458e-69 3.09646e-69 3.08209e-69 3.04598e-69 3.00408e-69 2.9708e-69 2.95675e-69 2.96751e-69 3.00358e-69 3.06117e-69 3.13378e-69 3.21411e-69 3.29558e-69 3.37322e-69 3.4434e-69 3.50281e-69 3.54734e-69 3.57144e-69 3.5688e-69 3.53381e-69 3.4636e-69 3.35944e-69 3.22694e-69 3.07489e-69 2.91327e-69 2.75101e-69 2.59453e-69 2.44733e-69 2.31082e-69 2.18586e-69 2.07443e-69 1.98066e-69 1.91052e-69 1.87039e-69 1.86461e-69 1.8933e-69 1.95123e-69 2.02837e-69 2.1121e-69 2.19005e-69 2.25284e-69 2.29548e-69 2.31765e-69 2.32281e-69 2.31694e-69 2.30741e-69 2.30197e-69 2.30778e-69 2.33028e-69 2.37179e-69 2.43039e-69 2.49947e-69 2.56862e-69 2.62565e-69 2.65951e-69 2.6632e-69 2.63586e-69 2.58364e-69 2.51893e-69 2.45827e-69 2.41943e-69 2.4181e-69 2.46502e-69 2.56387e-69 2.71032e-69 2.89242e-69 3.09215e-69 3.28806e-69 3.45851e-69 3.58495e-69 3.65448e-69 3.66099e-69 3.60467e-69 3.49021e-69 3.3244e-69 3.11425e-69 2.86625e-69 2.58676e-69 2.28322e-69 1.96517e-69 1.64434e-69 1.33378e-69 1.04614e-69 7.91725e-70 5.77144e-70 4.04682e-70 2.72642e-70 1.76347e-70 1.09446e-70 6.51535e-71 3.71977e-71 2.0368e-71 1.06983e-71 5.39204e-72 2.6089e-72 1.21243e-72 5.41528e-73 2.32616e-73 9.61671e-74 3.82922e-74 1.46969e-74 5.44149e-75 1.94504e-75 6.71737e-76 2.24322e-76 7.24902e-77 2.26856e-77 6.88029e-78 2.02376e-78 5.77716e-79 1.60164e-79 4.31519e-80 1.13056e-80 2.88215e-81 7.15365e-82 1.72972e-82 4.07666e-83 9.37015e-84 2.10149e-84 4.60113e-85 9.83941e-86 2.0561e-86 4.20032e-87 8.39222e-88 1.64062e-88 3.13946e-89 5.88281e-90 1.07985e-90 1.94247e-91 3.42536e-92 5.9234e-93 1.00483e-93 1.67268e-94 2.73312e-95 4.38266e-96 6.74736e-97 0 
0 6.21787e-138 7.27214e-137 8.35723e-136 9.50311e-135 1.06918e-133 1.19008e-132 1.31036e-131 1.4271e-130 1.53716e-129 1.63733e-128 1.72448e-127 1.79569e-126 1.84845e-125 1.88077e-124 1.8913e-123 1.87944e-122 1.84538e-121 1.79008e-120 1.71527e-119 1.62333e-118 1.51717e-117 1.40008e-116 1.27555e-115 1.14711e-114 1.01814e-113 8.91739e-113 7.70593e-112 6.56898e-111 5.5231e-110 4.57937e-109 3.74358e-108 3.01681e-107 2.39612e-106 1.87536e-105 1.44608e-104 1.09834e-103 8.21554e-103 6.05051e-102 4.38642e-101 3.12963e-100 2.19703e-99 1.51719e-98 1.03037e-97 6.87999e-97 4.51553e-96 2.91232e-95 1.84526e-94 1.14826e-93 7.01546e-93 4.20702e-92 2.47546e-91 1.42877e-90 8.08615e-90 4.48586e-89 2.43847e-88 1.29836e-87 6.76875e-87 3.4537e-86 1.72403e-85 8.41589e-85 4.01567e-84 1.87205e-83 8.52255e-83 3.78703e-82 1.64164e-81 6.93871e-81 2.85795e-80 1.14645e-79 4.47632e-79 1.70011e-78 6.27684e-78 2.25123e-77 7.83809e-77 2.64724e-76 8.66644e-76 2.74796e-75 8.43238e-75 2.50203e-74 7.17229e-74 1.98452e-73 5.29523e-73 1.36122e-72 3.36796e-72 8.01247e-72 1.83101e-71 4.01517e-71 8.44048e-71 1.69922e-70 3.27291e-70 6.02595e-70 1.05964e-69 1.77833e-69 2.84658e-69 4.34412e-69 6.31909e-69 8.76199e-69 1.15855e-68 1.46192e-68 1.76267e-68 2.03435e-68 2.25279e-68 2.40099e-68 2.47236e-68 2.4715e-68 2.41268e-68 2.31682e-68 2.20798e-68 2.11017e-68 2.04474e-68 2.02816e-68 2.07014e-68 2.17217e-68 2.32688e-68 2.51871e-68 2.72615e-68 2.92551e-68 3.09518e-68 3.21973e-68 3.29246e-68 3.31596e-68 3.30073e-68 3.26226e-68 3.2176e-68 3.18212e-68 3.16716e-68 3.17869e-68 3.21723e-68 3.27874e-68 3.35629e-68 3.44206e-68 3.52905e-68 3.61195e-68 3.68688e-68 3.75032e-68 3.79786e-68 3.8236e-68 3.82076e-68 3.78339e-68 3.7084e-68 3.59713e-68 3.45554e-68 3.29305e-68 3.12029e-68 2.9468e-68 2.77944e-68 2.62196e-68 2.47587e-68 2.3421e-68 2.22279e-68 2.12235e-68 2.0472e-68 2.00417e-68 1.99792e-68 2.02859e-68 2.09059e-68 2.17319e-68 2.26287e-68 2.34641e-68 2.41372e-68 2.45947e-68 2.4833e-68 2.48891e-68 2.48269e-68 2.47252e-68 2.4667e-68 2.4729e-68 2.49694e-68 2.5413e-68 2.60392e-68 2.67777e-68 2.7517e-68 2.8127e-68 2.84895e-68 2.85296e-68 2.82382e-68 2.76809e-68 2.69899e-68 2.63422e-68 2.59274e-68 2.59134e-68 2.64146e-68 2.74705e-68 2.90349e-68 3.098e-68 3.31134e-68 3.52059e-68 3.70264e-68 3.8377e-68 3.91196e-68 3.9189e-68 3.8587e-68 3.73635e-68 3.55908e-68 3.33436e-68 3.06909e-68 2.77007e-68 2.44526e-68 2.10484e-68 1.76139e-68 1.42888e-68 1.12085e-68 8.48364e-69 6.18505e-69 4.33734e-69 2.92249e-69 1.89053e-69 1.17346e-69 6.98647e-70 3.98924e-70 2.18462e-70 1.14762e-70 5.78491e-71 2.79937e-71 1.30114e-71 5.81233e-72 2.4971e-72 1.03251e-72 4.11197e-73 1.57849e-73 5.84536e-74 2.08979e-74 7.2187e-75 2.41112e-75 7.79323e-76 2.4394e-76 7.40005e-77 2.17714e-77 6.21647e-78 1.72385e-78 4.6456e-79 1.21744e-79 3.10443e-80 7.7074e-81 1.86412e-81 4.39464e-82 1.01039e-82 2.2667e-83 4.9643e-84 1.06192e-84 2.21972e-85 4.53597e-86 9.06567e-87 1.77284e-87 3.39355e-88 6.361e-89 1.16801e-89 2.10175e-90 3.70749e-91 6.41347e-92 1.08834e-92 1.81232e-93 2.96233e-94 4.75189e-95 7.31831e-96 0 
0 6.791e-137 7.93896e-136 9.11948e-135 1.03653e-133 1.16566e-132 1.2969e-131 1.42735e-130 1.55383e-129 1.67293e-128 1.78117e-127 1.87515e-126 1.95174e-125 2.00821e-124 2.04244e-123 2.05299e-122 2.03925e-121 2.00143e-120 1.94063e-119 1.85874e-118 1.75836e-117 1.64267e-116 1.51526e-115 1.37991e-114 1.24044e-113 1.10052e-112 9.63493e-112 8.32256e-111 7.09172e-110 5.96018e-109 4.93975e-108 4.03656e-107 3.25161e-106 2.58158e-105 2.0197e-104 1.55676e-103 1.18195e-102 8.83742e-102 6.50597e-101 4.71479e-100 3.36262e-99 2.3597e-98 1.6289e-97 1.10582e-96 7.38103e-96 4.84258e-95 3.1221e-94 1.97746e-93 1.23008e-92 7.51264e-92 4.50356e-91 2.64902e-90 1.52841e-89 8.64708e-89 4.79541e-88 2.60586e-87 1.38702e-86 7.22858e-86 3.68713e-85 1.83996e-84 8.97897e-84 4.283e-83 1.99606e-82 9.08436e-82 4.03546e-81 1.74883e-80 7.38961e-80 3.04281e-79 1.22027e-78 4.76323e-78 1.8086e-77 6.67564e-77 2.39366e-76 8.33191e-76 2.81334e-75 9.20805e-75 2.91903e-74 8.95534e-74 2.65663e-73 7.6139e-73 2.10629e-72 5.61906e-72 1.4442e-71 3.57265e-71 8.49802e-71 1.94167e-70 4.25719e-70 8.94799e-70 1.80116e-69 3.46884e-69 6.38601e-69 1.12285e-68 1.88425e-68 3.01591e-68 4.60228e-68 6.69432e-68 9.28204e-68 1.2273e-67 1.54869e-67 1.86734e-67 2.15525e-67 2.38684e-67 2.54411e-67 2.62004e-67 2.61951e-67 2.55759e-67 2.45641e-67 2.34144e-67 2.23807e-67 2.16891e-67 2.15137e-67 2.19574e-67 2.3036e-67 2.46716e-67 2.66997e-67 2.88933e-67 3.10014e-67 3.27961e-67 3.41139e-67 3.48839e-67 3.51337e-67 3.4974e-67 3.45685e-67 3.40975e-67 3.37234e-67 3.35658e-67 3.3688e-67 3.40954e-67 3.47454e-67 3.55647e-67 3.64708e-67 3.73898e-67 3.82655e-67 3.90571e-67 3.97272e-67 4.02294e-67 4.05012e-67 4.04713e-67 4.00763e-67 3.92838e-67 3.81077e-67 3.66111e-67 3.48931e-67 3.3066e-67 3.12308e-67 2.94599e-67 2.7793e-67 2.62461e-67 2.48294e-67 2.35654e-67 2.2501e-67 2.17044e-67 2.12479e-67 2.11811e-67 2.15055e-67 2.2162e-67 2.30371e-67 2.39875e-67 2.48732e-67 2.55871e-67 2.60727e-67 2.63262e-67 2.63864e-67 2.63212e-67 2.62139e-67 2.61524e-67 2.62178e-67 2.64718e-67 2.69408e-67 2.7603e-67 2.83841e-67 2.91661e-67 2.98116e-67 3.01956e-67 3.02387e-67 2.99314e-67 2.93429e-67 2.8613e-67 2.79287e-67 2.74905e-67 2.74757e-67 2.80055e-67 2.91214e-67 3.07746e-67 3.28301e-67 3.50846e-67 3.72959e-67 3.92197e-67 4.06468e-67 4.14315e-67 4.15047e-67 4.08681e-67 3.95742e-67 3.76991e-67 3.53216e-67 3.25144e-67 2.93493e-67 2.59104e-67 2.23055e-67 1.86678e-67 1.51454e-67 1.18818e-67 8.99431e-68 6.55813e-68 4.59952e-68 3.09952e-68 2.00529e-68 1.24484e-68 7.41235e-69 4.23293e-69 2.31836e-69 1.21803e-69 6.14064e-70 2.97191e-70 1.38152e-70 6.17232e-71 2.65216e-71 1.09679e-71 4.36869e-72 1.67732e-72 6.21244e-73 2.22143e-73 7.67488e-74 2.56399e-74 8.28902e-75 2.59513e-75 7.87419e-76 2.31716e-76 6.61777e-77 1.83557e-77 4.94787e-78 1.29697e-78 3.30809e-79 8.21518e-80 1.98746e-80 4.68669e-81 1.07783e-81 2.41869e-82 5.29871e-83 1.13379e-83 2.37064e-84 4.84586e-85 9.688e-86 1.89513e-86 3.62879e-87 6.80413e-88 1.24979e-88 2.24964e-89 3.96969e-90 6.86935e-91 1.1661e-91 1.94247e-92 3.17618e-93 5.09672e-94 7.85202e-95 0 
0 7.33541e-136 8.57163e-135 9.84186e-134 1.11814e-132 1.25689e-131 1.39777e-130 1.5377e-129 1.67322e-128 1.80069e-127 1.91635e-126 2.01659e-125 2.09805e-124 2.15782e-123 2.19366e-122 2.20404e-121 2.18835e-120 2.14685e-119 2.08074e-118 1.9921e-117 1.88372e-116 1.75905e-115 1.62193e-114 1.47643e-113 1.32666e-112 1.17653e-111 1.02961e-110 8.89002e-110 7.57217e-109 6.36138e-108 5.27013e-107 4.30479e-106 3.46629e-105 2.75093e-104 2.15134e-103 1.65757e-102 1.25799e-101 9.40236e-101 6.9192e-100 5.01232e-99 3.57345e-98 2.5067e-97 1.72972e-96 1.17383e-95 7.83205e-95 5.1366e-94 3.31045e-93 2.09599e-92 1.30334e-91 7.95729e-91 4.76843e-90 2.80384e-89 1.61717e-88 9.14616e-88 5.07047e-87 2.75441e-86 1.4656e-85 7.63564e-85 3.89351e-84 1.94233e-83 9.47556e-83 4.51849e-82 2.10517e-81 9.57805e-81 4.25352e-80 1.84279e-79 7.78445e-79 3.2045e-78 1.28476e-77 5.01363e-77 1.90318e-76 7.02295e-76 2.51756e-75 8.76107e-75 2.95755e-74 9.67783e-74 3.06727e-73 9.4081e-73 2.79036e-72 7.99556e-72 2.21145e-71 5.89849e-71 1.51575e-70 3.74901e-70 8.91608e-70 2.03688e-69 4.46531e-69 9.38417e-69 1.88872e-68 3.63707e-68 6.69502e-68 1.17707e-67 1.97509e-67 3.1611e-67 4.82357e-67 7.01593e-67 9.72773e-67 1.28622e-66 1.62305e-66 1.95706e-66 2.25892e-66 2.50184e-66 2.66693e-66 2.74687e-66 2.7467e-66 2.68223e-66 2.5766e-66 2.45645e-66 2.34838e-66 2.27605e-66 2.2577e-66 2.30408e-66 2.41687e-66 2.58794e-66 2.80007e-66 3.02952e-66 3.25007e-66 3.43784e-66 3.57578e-66 3.65644e-66 3.6827e-66 3.66613e-66 3.62386e-66 3.57472e-66 3.53568e-66 3.51927e-66 3.53208e-66 3.57469e-66 3.64263e-66 3.72827e-66 3.82296e-66 3.919e-66 4.01051e-66 4.09323e-66 4.16326e-66 4.21574e-66 4.24415e-66 4.24101e-66 4.19972e-66 4.11687e-66 3.99391e-66 3.83739e-66 3.6577e-66 3.46655e-66 3.2745e-66 3.08912e-66 2.91458e-66 2.75256e-66 2.60412e-66 2.47165e-66 2.36007e-66 2.27653e-66 2.22862e-66 2.22155e-66 2.2555e-66 2.32427e-66 2.41598e-66 2.51563e-66 2.60851e-66 2.68342e-66 2.73443e-66 2.7611e-66 2.7675e-66 2.76073e-66 2.74953e-66 2.74309e-66 2.74992e-66 2.77648e-66 2.82552e-66 2.8948e-66 2.97651e-66 3.05835e-66 3.12592e-66 3.16615e-66 3.17074e-66 3.13868e-66 3.07721e-66 3.00093e-66 2.92941e-66 2.88362e-66 2.88208e-66 2.93748e-66 3.05414e-66 3.22697e-66 3.44187e-66 3.67755e-66 3.9087e-66 4.10981e-66 4.259e-66 4.34103e-66 4.34866e-66 4.28206e-66 4.14669e-66 3.95048e-66 3.70165e-66 3.40777e-66 3.07633e-66 2.71614e-66 2.33849e-66 1.95734e-66 1.58819e-66 1.2461e-66 9.43385e-67 6.87944e-67 4.82545e-67 3.25216e-67 2.10429e-67 1.30646e-67 7.78017e-68 4.44352e-68 2.434e-68 1.27894e-68 6.44853e-69 3.12133e-69 1.45118e-69 6.48442e-70 2.78667e-70 1.15259e-70 4.59167e-71 1.76322e-71 6.53171e-72 2.33601e-72 8.07221e-73 2.69725e-73 8.72154e-74 2.7311e-74 8.28851e-75 2.43961e-75 6.96907e-76 1.93346e-76 5.21296e-77 1.3668e-77 3.48705e-78 8.66182e-79 2.09607e-79 4.94411e-80 1.13735e-80 2.55295e-81 5.59443e-82 1.19741e-82 2.50441e-83 5.12082e-84 1.02408e-84 2.00389e-85 3.83824e-86 7.19915e-87 1.32277e-87 2.38179e-88 4.20426e-89 7.27769e-90 1.23583e-90 2.05934e-91 3.36843e-92 5.4071e-93 8.33299e-94 0 